
                                 *****************
                                 * O   R   C   A *
                                 *****************

           --- An Ab Initio, DFT and Semiempirical electronic structure package ---

                  #######################################################
                  #                        -***-                        #
                  #          Department of theory and spectroscopy      #
                  #               Directorship: Frank Neese             #
                  #        Max Planck Institute fuer Kohlenforschung    #
                  #                Kaiser Wilhelm Platz 1               #
                  #                 D-45470 Muelheim/Ruhr               #
                  #                      Germany                        #
                  #                                                     #
                  #                  All rights reserved                #
                  #                        -***-                        #
                  #######################################################


                         Program Version 4.2.0 -  RELEASE  -


 With contributions from (in alphabetic order):
   Daniel Aravena         : Magnetic Suceptibility
   Michael Atanasov       : Ab Initio Ligand Field Theory (pilot matlab implementation)
   Alexander A. Auer      : GIAO ZORA, VPT2
   Ute Becker             : Parallelization
   Giovanni Bistoni       : ED, misc. LED, open-shell LED, HFLED
   Martin Brehm           : Molecular dynamics
   Dmytro Bykov           : SCF Hessian
   Vijay G. Chilkuri      : MRCI spin determinant printing, contributions to CSF-ICE
   Dipayan Datta          : RHF DLPNO-CCSD density
   Achintya Kumar Dutta   : EOM-CC, STEOM-CC
   Dmitry Ganyushin       : Spin-Orbit,Spin-Spin,Magnetic field MRCI
   Miquel Garcia          : C-PCM Hessian, Gaussian charge scheme
   Yang Guo               : DLPNO-NEVPT2, CIM, IAO-localization
   Andreas Hansen         : Spin unrestricted coupled pair/coupled cluster methods
   Benjamin Helmich-Paris : CASSCF linear response (MC-RPA)
   Lee Huntington         : MR-EOM, pCC
   Robert Izsak           : Overlap fitted RIJCOSX, COSX-SCS-MP3, EOM
   Christian Kollmar      : KDIIS, OOCD, Brueckner-CCSD(T), CCSD density
   Simone Kossmann        : Meta GGA functionals, TD-DFT gradient, OOMP2, MP2 Hessian
   Martin Krupicka        : AUTO-CI
   Lucas Lang             : DCDCAS
   Dagmar Lenk            : GEPOL surface, SMD
   Dimitrios Liakos       : Extrapolation schemes; Compound Job, initial MDCI parallelization
   Dimitrios Manganas     : Further ROCIS development; embedding schemes
   Dimitrios Pantazis     : SARC Basis sets
   Taras Petrenko         : DFT Hessian,TD-DFT gradient, ASA, ECA, R-Raman, ABS, FL, XAS/XES, NRVS
   Peter Pinski           : DLPNO-MP2, DLPNO-MP2 Gradient
   Christoph Reimann      : Effective Core Potentials
   Marius Retegan         : Local ZFS, SOC
   Christoph Riplinger    : Optimizer, TS searches, QM/MM, DLPNO-CCSD(T), (RO)-DLPNO pert. Triples
   Tobias Risthaus        : Range-separated hybrids, TD-DFT gradient, RPA, STAB
   Michael Roemelt        : Original ROCIS implementation
   Masaaki Saitow         : Open-shell DLPNO-CCSD energy and density
   Barbara Sandhoefer     : DKH picture change effects
   Avijit Sen             : IP-ROCIS
   Kantharuban Sivalingam : CASSCF convergence, NEVPT2, FIC-MRCI
   Bernardo de Souza      : ESD, SOC TD-DFT
   Georgi Stoychev        : AutoAux, RI-MP2 NMR
   Willem Van den Heuvel  : Paramagnetic NMR
   Boris Wezisla          : Elementary symmetry handling
   Frank Wennmohs         : Technical directorship


 We gratefully acknowledge several colleagues who have allowed us to
 interface, adapt or use parts of their codes:
   Stefan Grimme, W. Hujo, H. Kruse,             : VdW corrections, initial TS optimization,
                  C. Bannwarth                     DFT functionals, gCP, sTDA/sTD-DF
   Ed Valeev, F. Pavosevic, A. Kumar             : LibInt (2-el integral package), F12 methods
   Garnet Chan, S. Sharma, J. Yang, R. Olivares  : DMRG
   Ulf Ekstrom                                   : XCFun DFT Library
   Mihaly Kallay                                 : mrcc  (arbitrary order and MRCC methods)
   Andreas Klamt, Michael Diedenhofen            : otool_cosmo (COSMO solvation model)
   Jiri Pittner, Ondrej Demel                    : Mk-CCSD
   Frank Weinhold                                : gennbo (NPA and NBO analysis)
   Christopher J. Cramer and Donald G. Truhlar   : smd solvation model
   Lars Goerigk                                  : TD-DFT with DH, B97 family of functionals
   V. Asgeirsson, H. Jonsson                     : NEB implementation
   FAccTs GmbH                                   : IRC, NEB, NEB-TS, Multilevel, MM, QM/MM, CI optimization
   S Lehtola, MJT Oliveira, MAL Marques          : LibXC Library


 Your calculation uses the libint2 library for the computation of 2-el integrals
 For citations please refer to: http://libint.valeyev.net

 Your ORCA version has been built with support for libXC version: 4.2.3
 For citations please refer to: https://tddft.org/programs/libxc/

 This ORCA versions uses:
   CBLAS   interface :  Fast vector & matrix operations
   LAPACKE interface :  Fast linear algebra routines
   SCALAPACK package :  Parallel linear algebra routines


----- Orbital basis set information -----
Your calculation utilizes the basis: def2-QZVPP
   F. Weigend and R. Ahlrichs, Phys. Chem. Chem. Phys. 7, 3297 (2005).

================================================================================
                                        WARNINGS
                       Please study these warnings very carefully!
================================================================================


IMPORTANT NOTE: CASSCF must signal convergence a subsequent CASPT2/NEVPT2! 
                Set maxiter=1 to run CASPT2/NEVPT2 with arbitrary orbitals.


INFO   : the flag for use of LIBINT has been found!

================================================================================
                                       INPUT FILE
================================================================================
NAME = H2_0_1_CASPT2-2-2_def2-qzvpp.sp.inp
|  1> !rhf caspt2 def2-qzvpp tightscf 
|  2> !normalprint
|  3> 
|  4> %paras
|  5> #  rHH [19.952623149688797 16.43574799372698 13.538761800225439 11.152402139117903 9.1866653175426 7.567411809920191 6.233570019315557 5.134832907437553 4.229760619613384 3.4842175435383975 2.870084854071569 2.3641999865500756 1.9474830399087562 1.6042171611153242 1.32145576997553 1.088534267260644 0.8966678097917788 0.7386199822079362 0.6084298690766428 0.5011872336272722]
|  6>   rHH [0.5011872336272722 0.6084298690766428 0.7386199822079362 0.8966678097917788 1.088534267260644 1.32145576997553 1.6042171611153242 1.9474830399087562 2.3641999865500756 2.870084854071569 3.4842175435383975 4.229760619613384 5.134832907437553 6.233570019315557 7.567411809920191 9.1866653175426 11.152402139117903 13.538761800225439 16.43574799372698 19.952623149688797]
|  7> end
|  8> 
|  9> %scf
| 10>   maxiter 500
| 11> end
| 12> 
| 13> %casscf
| 14>   nel 2
| 15>   norb 2
| 16> end
| 17> 
| 18> *int 0 1
| 19> H 0 0 0 0 0 0
| 20> H 1 0 0 {rHH} 0 0
| 21> *
| 22> 
| 23>                          ****END OF INPUT****
================================================================================

                       ******************************
                       * Parameter Scan Calculation *
                       ******************************

Trajectory settings:
    -> SCF surface will be mapped
    -> CASPT2 surface(s) will be mapped with 1 roots

There are 1 parameter(s) to be scanned
           RHH: user defined at 20 points
There will be   20 energy evaluations


         *************************************************************
                                TRAJECTORY STEP   1
                RHH  :   0.50118723
         *************************************************************
---------------------------------
CARTESIAN COORDINATES (ANGSTROEM)
---------------------------------
  H      0.000000    0.000000    0.000000
  H      0.501187    0.000000    0.000000

----------------------------
CARTESIAN COORDINATES (A.U.)
----------------------------
  NO LB      ZA    FRAG     MASS         X           Y           Z
   0 H     1.0000    0     1.008    0.000000    0.000000    0.000000
   1 H     1.0000    0     1.008    0.947107    0.000000    0.000000

--------------------------------
INTERNAL COORDINATES (ANGSTROEM)
--------------------------------
 H      0   0   0     0.000000000000     0.00000000     0.00000000
 H      1   0   0     0.501187233627     0.00000000     0.00000000

---------------------------
INTERNAL COORDINATES (A.U.)
---------------------------
 H      0   0   0     0.000000000000     0.00000000     0.00000000
 H      1   0   0     0.947106613373     0.00000000     0.00000000

---------------------
BASIS SET INFORMATION
---------------------
There are 1 groups of distinct atoms

 Group   1 Type H   : 7s3p2d1f contracted to 4s3p2d1f pattern {4111/111/11/1}

Atom   0H    basis set group =>   1
Atom   1H    basis set group =>   1
------------------------------------------------------------------------------
                           ORCA GTO INTEGRAL CALCULATION
------------------------------------------------------------------------------

                         BASIS SET STATISTICS AND STARTUP INFO

 # of primitive gaussian shells          ...   26
 # of primitive gaussian functions       ...   66
 # of contracted shells                  ...   20
 # of contracted basis functions         ...   60
 Highest angular momentum                ...    3
 Maximum contraction depth               ...    4
 Integral package used                   ... LIBINT
 Integral threshhold            Thresh   ...  2.500e-11
 Primitive cut-off              TCut     ...  2.500e-12


------------------------------ INTEGRAL EVALUATION ----------------------------


 * One electron integrals 
 Pre-screening matrix                    ... done
 Shell pair data                         ... done (   0.000 sec)

-------------------------------------------------------------------------------
                                 ORCA SCF
-------------------------------------------------------------------------------

------------
SCF SETTINGS
------------
Hamiltonian:
 Ab initio Hamiltonian  Method          .... Hartree-Fock(GTOs)


General Settings:
 Integral files         IntName         .... H2_0_1_CASPT2-2-2_def2-qzvpp.sp
 Hartree-Fock type      HFTyp           .... CASSCF
 Total Charge           Charge          ....    0
 Multiplicity           Mult            ....    1
 Number of Electrons    NEL             ....    2
 Basis Dimension        Dim             ....   60
 Nuclear Repulsion      ENuc            ....      1.0558473417 Eh


Diagonalization of the overlap matrix:
Smallest eigenvalue                        ... 5.708e-05
Time for diagonalization                   ...    0.001 sec
Threshold for overlap eigenvalues          ... 1.000e-08
Number of eigenvalues below threshold      ... 0
Time for construction of square roots      ...    0.003 sec
Total time needed                          ...    0.004 sec

-------------------
DFT GRID GENERATION
-------------------

General Integration Accuracy     IntAcc      ...  4.340
Radial Grid Type                 RadialGrid  ... Gauss-Chebyshev
Angular Grid (max. acc.)         AngularGrid ... Lebedev-110
Angular grid pruning method      GridPruning ... 3 (G Style)
Weight generation scheme         WeightScheme... Becke
Basis function cutoff            BFCut       ...    1.0000e-11
Integration weight cutoff        WCut        ...    1.0000e-14
Grids for H and He will be reduced by one unit

# of grid points (after initial pruning)     ...   1588 (   0.0 sec)
# of grid points (after weights+screening)   ...   1560 (   0.0 sec)
nearest neighbour list constructed           ...    0.0 sec
Grid point re-assignment to atoms done       ...    0.0 sec
Grid point division into batches done        ...    0.0 sec
Reduced shell lists constructed in    0.0 sec

Total number of grid points                  ...     1560
Total number of batches                      ...       26
Average number of points per batch           ...       60
Average number of grid points per atom       ...      780
Average number of shells per batch           ...    19.15 (95.74%)
Average number of basis functions per batch  ...    57.44 (95.74%)
Average number of large shells per batch     ...    18.78 (98.07%)
Average number of large basis fcns per batch ...    56.19 (97.81%)
Maximum spatial batch extension              ...  15.26, 21.59, 21.59 au
Average spatial batch extension              ...   4.46,  7.66,  7.77 au

Time for grid setup =    0.007 sec

------------------------------
INITIAL GUESS: MODEL POTENTIAL
------------------------------
Loading Hartree-Fock densities                     ... done
Calculating cut-offs                               ... done
Setting up the integral package                    ... done
Initializing the effective Hamiltonian             ... done
Starting the Coulomb interaction                   ... done (   0.0 sec)
Reading the grid                                   ... done
Mapping shells                                     ... done
Starting the XC term evaluation                    ... done (   0.0 sec)
Transforming the Hamiltonian                       ... done (   0.0 sec)
Diagonalizing the Hamiltonian                      ... done (   0.0 sec)
Back transforming the eigenvectors                 ... done (   0.0 sec)
Now organizing SCF variables                       ... done
                      ------------------
                      INITIAL GUESS DONE (   0.1 sec)
                      ------------------


 ... the calculation is a CASSCF calculation -I'm leaving here GOOD LUCK!!!

-------------------------------------------------------------------------------
                              ORCA-CASSCF
-------------------------------------------------------------------------------

Setting up the integral package       ... done
Building the CAS space                ... done (3 configurations for Mult=1)
Note: CASPT2 memory consumption cannot be estimated prior run.

SYSTEM-SPECIFIC SETTINGS:
Number of active electrons          ...    2
Number of active orbitals           ...    2
Total number of electrons           ...    2
Total number of orbitals            ...   60

Determined orbital ranges:
   Internal       0 -   -1 (   0 orbitals)
   Active         0 -    1 (   2 orbitals)
   External       2 -   59 (  58 orbitals)
Number of rotation parameters      ...    116

CI-STEP:
CI strategy                         ... General CI
Number of multiplicity blocks       ...    1
BLOCK  1 WEIGHT=   1.0000
  Multiplicity                      ...    1
  #(Configurations)                 ...    3
  #(CSFs)                           ...    3
  #(Roots)                          ...    1
    ROOT=0 WEIGHT=    1.000000

  PrintLevel                        ...    1
  N(GuessMat)                       ...       512
  MaxDim(CI)                        ...        10
  MaxIter(CI)                       ...        64
  Energy Tolerance CI               ...  2.50e-09
  Residual Tolerance CI             ...  2.50e-09
  Shift(CI)                         ...  1.00e-04

INTEGRAL-TRANSFORMATION-STEP:
  Algorithm                         ... EXACT

ORBITAL-IMPROVEMENT-STEP:
  Algorithm                         ... SuperCI(PT)
  Default Parametrization           ... CAYLEY
  Act-Act rotations                 ... depends on algorithm used

  Note: SuperCI(PT) will ignore FreezeIE, FreezeAct and FreezeGrad. In general Default settings are encouraged.
        In conjunction with ShiftUp, ShiftDn or GradScaling the performance of SuperCI(PT) is less optimal.  

  MaxRot                            ... 2.00e-01 
  Max. no of vectors (DIIS)         ... 15
  DThresh (cut-off) metric          ... 1.00e-06
  Switch step at gradient           ...  3.00e-02 
  Switch step at iteration          ...        50   
  Switch step to                    ... SuperCI(PT)    

SCF-SETTINGS:
  Incremental                       ... on
  RIJCOSX approximation             ... off
  RI-JK approximation               ... off
  AO integral handling              ... DIRECT
  Integral Neglect Thresh           ...  2.50e-11
  Primitive cutoff TCut             ...  2.50e-12
  Energy convergence tolerance      ...  2.50e-08
  Orbital gradient convergence      ...  2.50e-04
  Max. number of iterations         ...        75  

PT2-SETTINGS:
  A PT2 calculation will be performed on top of the CASSCF wave function (PT2 = CASPT2)   
  CASPT2 Real Levelshift            ...  0.00e+00
  CASPT2 Im.  Levelshift            ...  0.00e+00
  CASPT2 IPEA Levelshift            ...  0.00e+00
 CI step strategy                   ... General CI
  D4C handling                      ... on the disk 
  CI truncation for D4C at          ...  1.00e-10
  CI truncation for D3  at          ...  1.00e-14
  Orbitals                          ... canonical for each state 
  Last  frozen  orbital             ... -1
  First deleted orbital             ... 60

PROPERTIES-SETTINGS:
  QDPT diagonal energies            ... CASPT2 energies 

FINAL ORBITALS:
  Active   Orbitals                 ... natural 
  Internal Orbitals                 ... canonical 
  External Orbitals                 ... canonical 

------------------
CAS-SCF ITERATIONS
------------------


MACRO-ITERATION   1: 
   --- Inactive Energy E0 = 1.05584734 Eh
CI-ITERATION   0: 
    -1.059644899   0.000000000000 (    0.00)
   CI-PROBLEM SOLVED
   DENSITIES MADE

                 <<<<<<<<<<<<<<<<<<INITIAL CI STATE CHECK>>>>>>>>>>>>>>>>>>

BLOCK  1 MULT= 1 NROOTS= 1 
ROOT   0:  E=      -1.0596448995 Eh
      0.99953 [     0]: 20

                 <<<<<<<<<<<<<<<<<<INITIAL CI STATE CHECK>>>>>>>>>>>>>>>>>>

   E(CAS)=    -1.059644899 Eh DE=     0.000000000
   --- Energy gap subspaces: Ext-Act = 0.012   Act-Int = 0.600
   N(occ)=  1.99906 0.00094
   ||g|| =      0.328651188 Max(G)=     0.198744115 Rot=24,0
   --- Orbital Update [SuperCI(PT)]
   --- Canonicalize Internal Space
   --- Canonicalize External Space
   --- SX_PT (Skipped TA=0 IT=0): ||X|| =      1.076512522 Max(X)(3,1) =      0.724550581 
   --- SFit(Active Orbitals)

MACRO-ITERATION   2: 
   --- Inactive Energy E0 = 1.05584734 Eh
CI-ITERATION   0: 
    -1.070807158   0.000000000000 (    0.00)
   CI-PROBLEM SOLVED
   DENSITIES MADE
   E(CAS)=    -1.070807158 Eh DE=    -0.011162258
   --- Energy gap subspaces: Ext-Act = -0.254   Act-Int = 0.600
   N(occ)=  1.99362 0.00638
   ||g|| =      0.037101460 Max(G)=    -0.018576478 Rot=2,0
   --- Orbital Update [SuperCI(PT)]
   --- Canonicalize Internal Space
   --- Canonicalize External Space
   --- SX_PT (Skipped TA=0 IT=0): ||X|| =      0.557948816 Max(X)(3,1) =      0.431866593 
   --- SFit(Active Orbitals)

MACRO-ITERATION   3: 
   --- Inactive Energy E0 = 1.05584734 Eh
CI-ITERATION   0: 
    -1.077977195   0.000000000000 (    0.00)
   CI-PROBLEM SOLVED
   DENSITIES MADE
   E(CAS)=    -1.077977195 Eh DE=    -0.007170037
   --- Energy gap subspaces: Ext-Act = -0.870   Act-Int = 0.600
   N(occ)=  1.98994 0.01006
   ||g|| =      0.039136335 Max(G)=     0.021335995 Rot=9,0
   --- Orbital Update [SuperCI(PT)]
   --- Canonicalize Internal Space
   --- Canonicalize External Space
   --- SX_PT (Skipped TA=0 IT=0): ||X|| =      0.134847612 Max(X)(3,1) =      0.119922100 
   --- SFit(Active Orbitals)

MACRO-ITERATION   4: 
   --- Inactive Energy E0 = 1.05584734 Eh
CI-ITERATION   0: 
    -1.078588912   0.000000000000 (    0.00)
   CI-PROBLEM SOLVED
   DENSITIES MADE
   E(CAS)=    -1.078588912 Eh DE=    -0.000611717
   --- Energy gap subspaces: Ext-Act = -0.822   Act-Int = 0.600
   N(occ)=  1.98898 0.01102
   ||g|| =      0.005784803 Max(G)=    -0.003157367 Rot=18,0
   --- Orbital Update [SuperCI(PT)]
   --- Canonicalize Internal Space
   --- Canonicalize External Space
   --- SX_PT (Skipped TA=0 IT=0): ||X|| =      0.015040874 Max(X)(3,1) =      0.013479702 
   --- SFit(Active Orbitals)

MACRO-ITERATION   5: 
   --- Inactive Energy E0 = 1.05584734 Eh
CI-ITERATION   0: 
    -1.078596955   0.000000000000 (    0.00)
   CI-PROBLEM SOLVED
   DENSITIES MADE
   E(CAS)=    -1.078596955 Eh DE=    -0.000008044
   --- Energy gap subspaces: Ext-Act = -0.821   Act-Int = 0.600
   N(occ)=  1.98894 0.01106
   ||g|| =      0.002207882 Max(G)=    -0.001224523 Rot=9,0
   --- Orbital Update [SuperCI(PT)]
   --- Canonicalize Internal Space
   --- Canonicalize External Space
   --- SX_PT (Skipped TA=0 IT=0): ||X|| =      0.005681176 Max(X)(3,1) =     -0.004011504 
   --- SFit(Active Orbitals)

MACRO-ITERATION   6: 
   --- Inactive Energy E0 = 1.05584734 Eh
CI-ITERATION   0: 
    -1.078598269   0.000000000000 (    0.00)
   CI-PROBLEM SOLVED
   DENSITIES MADE
   E(CAS)=    -1.078598269 Eh DE=    -0.000001314
   --- Energy gap subspaces: Ext-Act = -0.824   Act-Int = 0.600
   N(occ)=  1.98897 0.01103
   ||g|| =      0.000238449 Max(G)=     0.000138955 Rot=2,0
                     ---- THE CAS-SCF GRADIENT HAS CONVERGED ----
                            --- FINALIZING ORBITALS ---
                    ---- DOING ONE FINAL ITERATION FOR PRINTING ----
   --- Forming Natural Orbitals
   --- Canonicalize Internal Space
   --- Canonicalize External Space

MACRO-ITERATION   7: 
   --- Inactive Energy E0 = 1.05584734 Eh
   --- All densities will be recomputed
CI-ITERATION   0: 
    -1.078598269   0.000000000000 (    0.00)
   CI-PROBLEM SOLVED
   DENSITIES MADE
   E(CAS)=    -1.078598269 Eh DE=     0.000000000
   --- Energy gap subspaces: Ext-Act = -0.835   Act-Int = 0.600
   N(occ)=  1.98897 0.01103
   ||g|| =      0.000238449 Max(G)=    -0.000131557 Rot=2,0
--------------
CASSCF RESULTS
--------------

Final CASSCF energy       : -1.078598269 Eh     -29.3502 eV

----------------
ORBITAL ENERGIES
----------------

  NO   OCC          E(Eh)            E(eV) 
   0   1.9890      -0.677298       -18.4302 
   1   0.0110       1.014559        27.6076 
   2   0.0000       0.179297         4.8789 
   3   0.0000       0.196424         5.3450 
   4   0.0000       0.534139        14.5347 
   5   0.0000       0.534139        14.5347 
   6   0.0000       0.785164        21.3654 
   7   0.0000       0.800208        21.7748 
   8   0.0000       0.800208        21.7748 
   9   0.0000       0.822285        22.3755 
  10   0.0000       0.973462        26.4893 
  11   0.0000       1.732169        47.1347 
  12   0.0000       2.001070        54.4519 
  13   0.0000       2.001070        54.4519 
  14   0.0000       2.197137        59.7871 
  15   0.0000       2.197137        59.7871 
  16   0.0000       2.222269        60.4710 
  17   0.0000       2.222269        60.4710 
  18   0.0000       2.514361        68.4192 
  19   0.0000       2.559073        69.6359 
  20   0.0000       2.559073        69.6359 
  21   0.0000       2.623538        71.3901 
  22   0.0000       2.623538        71.3901 
  23   0.0000       2.757409        75.0329 
  24   0.0000       3.085497        83.9606 
  25   0.0000       3.836555       104.3980 
  26   0.0000       4.204421       114.4081 
  27   0.0000       4.204421       114.4081 
  28   0.0000       5.777427       157.2118 
  29   0.0000       5.777427       157.2118 
  30   0.0000       6.072881       165.2515 
  31   0.0000       6.802742       185.1120 
  32   0.0000       6.877198       187.1381 
  33   0.0000       6.877198       187.1381 
  34   0.0000       6.904245       187.8741 
  35   0.0000       6.904245       187.8741 
  36   0.0000       7.074720       192.5129 
  37   0.0000       7.074720       192.5129 
  38   0.0000       7.112897       193.5518 
  39   0.0000       7.112897       193.5518 
  40   0.0000       7.120595       193.7612 
  41   0.0000       7.120595       193.7612 
  42   0.0000       7.288727       198.3363 
  43   0.0000       7.288727       198.3363 
  44   0.0000       7.668954       208.6829 
  45   0.0000       7.766607       211.3401 
  46   0.0000       7.897117       214.8915 
  47   0.0000       7.897117       214.8915 
  48   0.0000       8.760811       238.3938 
  49   0.0000       9.063439       246.6287 
  50   0.0000       9.063439       246.6287 
  51   0.0000      10.667857       290.2871 
  52   0.0000      10.667857       290.2871 
  53   0.0000      11.373834       309.4977 
  54   0.0000      11.373834       309.4977 
  55   0.0000      11.995169       326.4052 
  56   0.0000      15.143917       412.0869 
  57   0.0000      15.143917       412.0869 
  58   0.0000      15.971760       434.6137 
  59   0.0000      18.593920       505.9663 


---------------------------------------------
CAS-SCF STATES FOR BLOCK  1 MULT= 1 NROOTS= 1
---------------------------------------------

ROOT   0:  E=      -1.0785982690 Eh
      0.99449 [     0]: 20
      0.00551 [     2]: 02


--------------
DENSITY MATRIX
--------------

                   0          1    
      0       1.988970   0.000000
      1       0.000000   0.011030
Trace of the electron density:  2.000000

-----------------
ENERGY COMPONENTS
-----------------

One electron energy          :     -2.869595575 Eh         -78.0857 eV
Two electron energy          :      0.735149964 Eh          20.0044 eV
Nuclear repulsion energy     :      1.055847342 Eh          28.7311 eV
                               ----------------
                                   -1.078598269

Kinetic energy               :      1.476663790 Eh          40.1821 eV
Potential energy             :     -2.555262059 Eh         -69.5322 eV
Virial ratio                 :     -1.730429145 
                               ----------------
                                   -1.078598269

Core energy                  :      1.055847342 Eh       28.7311 eV


----------------------------
LOEWDIN ORBITAL-COMPOSITIONS
----------------------------

                      0         1         2         3         4         5   
                  -0.67730   1.01456   0.17930   0.19642   0.53414   0.53414
                   1.98897   0.01103   0.00000   0.00000   0.00000   0.00000
                  --------  --------  --------  --------  --------  --------
 0 H  s              47.2      10.1      49.1      47.6       0.0       0.0
 0 H  pz              0.0       0.0       0.0       0.0      49.9       0.0
 0 H  px              2.4      34.8       0.9       2.1       0.0       0.0
 0 H  py              0.0       0.0       0.0       0.0       0.0      49.9
 0 H  dz2             0.1       1.1       0.0       0.1       0.0       0.0
 0 H  dx2y2           0.2       3.4       0.0       0.2       0.0       0.0
 0 H  f+1             0.0       0.2       0.0       0.0       0.0       0.0
 0 H  f+3             0.0       0.3       0.0       0.0       0.0       0.0
 1 H  s              47.2      10.1      49.1      47.6       0.0       0.0
 1 H  pz              0.0       0.0       0.0       0.0      49.9       0.0
 1 H  px              2.4      34.8       0.9       2.1       0.0       0.0
 1 H  py              0.0       0.0       0.0       0.0       0.0      49.9
 1 H  dz2             0.1       1.1       0.0       0.1       0.0       0.0
 1 H  dx2y2           0.2       3.4       0.0       0.2       0.0       0.0
 1 H  f+1             0.0       0.2       0.0       0.0       0.0       0.0
 1 H  f+3             0.0       0.3       0.0       0.0       0.0       0.0

                      6         7         8         9        10        11   
                   0.78516   0.80021   0.80021   0.82228   0.97346   1.73217
                   0.00000   0.00000   0.00000   0.00000   0.00000   0.00000
                  --------  --------  --------  --------  --------  --------
 0 H  s              36.9       0.0       0.0       5.7      40.9      14.0
 0 H  pz              0.0       0.0      40.7       0.0       0.0       0.0
 0 H  px             13.0       0.0       0.0      36.8       4.5      25.5
 0 H  py              0.0      40.7       0.0       0.0       0.0       0.0
 0 H  dz2             0.0       0.0       0.0       1.9       1.1       2.6
 0 H  dxz             0.0       0.0       9.2       0.0       0.0       0.0
 0 H  dx2y2           0.1       0.0       0.0       5.6       3.4       7.8
 0 H  dxy             0.0       9.2       0.0       0.0       0.0       0.0
 1 H  s              36.9       0.0       0.0       5.7      40.9      14.0
 1 H  pz              0.0       0.0      40.7       0.0       0.0       0.0
 1 H  px             13.0       0.0       0.0      36.8       4.5      25.5
 1 H  py              0.0      40.7       0.0       0.0       0.0       0.0
 1 H  dz2             0.0       0.0       0.0       1.9       1.1       2.6
 1 H  dxz             0.0       0.0       9.2       0.0       0.0       0.0
 1 H  dx2y2           0.1       0.0       0.0       5.6       3.4       7.8
 1 H  dxy             0.0       9.2       0.0       0.0       0.0       0.0

                     12        13        14        15        16        17   
                   2.00107   2.00107   2.19714   2.19714   2.22227   2.22227
                   0.00000   0.00000   0.00000   0.00000   0.00000   0.00000
                  --------  --------  --------  --------  --------  --------
 0 H  pz              0.0       0.0       0.0      48.1       0.0      11.2
 0 H  py              0.0       0.0      48.1       0.0      11.2       0.0
 0 H  dz2             0.0      37.4       0.0       0.0       0.0       0.0
 0 H  dxz             0.0       0.0       0.0       1.5       0.0      38.7
 0 H  dyz            49.9       0.0       0.0       0.0       0.0       0.0
 0 H  dx2y2           0.0      12.5       0.0       0.0       0.0       0.0
 0 H  dxy             0.0       0.0       1.5       0.0      38.7       0.0
 0 H  f0              0.0       0.0       0.0       0.2       0.0       0.0
 0 H  f+2             0.0       0.0       0.0       0.3       0.0       0.0
 0 H  f-3             0.0       0.0       0.4       0.0       0.1       0.0
 1 H  pz              0.0       0.0       0.0      48.1       0.0      11.2
 1 H  py              0.0       0.0      48.1       0.0      11.2       0.0
 1 H  dz2             0.0      37.4       0.0       0.0       0.0       0.0
 1 H  dxz             0.0       0.0       0.0       1.5       0.0      38.7
 1 H  dyz            49.9       0.0       0.0       0.0       0.0       0.0
 1 H  dx2y2           0.0      12.5       0.0       0.0       0.0       0.0
 1 H  dxy             0.0       0.0       1.5       0.0      38.7       0.0
 1 H  f0              0.0       0.0       0.0       0.2       0.0       0.0
 1 H  f+2             0.0       0.0       0.0       0.3       0.0       0.0
 1 H  f-3             0.0       0.0       0.4       0.0       0.1       0.0

                     18        19        20        21        22        23   
                   2.51436   2.55907   2.55907   2.62354   2.62354   2.75741
                   0.00000   0.00000   0.00000   0.00000   0.00000   0.00000
                  --------  --------  --------  --------  --------  --------
 0 H  s               1.2       0.0       0.0       0.0       0.0       4.3
 0 H  pz              0.0       0.0       0.0       0.0       1.3       0.0
 0 H  px             19.5       0.0       0.0       0.0       0.0       7.9
 0 H  py              0.0       0.0       0.0       1.3       0.0       0.0
 0 H  dz2             7.2       0.0      32.0       0.0       0.0       7.7
 0 H  dxz             0.0       0.0       0.0       0.0      43.8       0.0
 0 H  dyz             0.0      42.7       0.0       0.0       0.0       0.0
 0 H  dx2y2          21.7       0.0      10.7       0.0       0.0      23.1
 0 H  dxy             0.0       0.0       0.0      43.8       0.0       0.0
 0 H  f0              0.0       0.0       0.0       0.0       1.8       0.0
 0 H  f+1             0.1       0.0       4.6       0.0       0.0       2.6
 0 H  f-1             0.0       0.0       0.0       0.3       0.0       0.0
 0 H  f+2             0.0       0.0       0.0       0.0       3.0       0.0
 0 H  f-2             0.0       7.3       0.0       0.0       0.0       0.0
 0 H  f+3             0.2       0.0       2.7       0.0       0.0       4.3
 0 H  f-3             0.0       0.0       0.0       4.5       0.0       0.0
 1 H  s               1.2       0.0       0.0       0.0       0.0       4.3
 1 H  pz              0.0       0.0       0.0       0.0       1.3       0.0
 1 H  px             19.5       0.0       0.0       0.0       0.0       7.9
 1 H  py              0.0       0.0       0.0       1.3       0.0       0.0
 1 H  dz2             7.2       0.0      32.0       0.0       0.0       7.7
 1 H  dxz             0.0       0.0       0.0       0.0      43.8       0.0
 1 H  dyz             0.0      42.7       0.0       0.0       0.0       0.0
 1 H  dx2y2          21.7       0.0      10.7       0.0       0.0      23.1
 1 H  dxy             0.0       0.0       0.0      43.8       0.0       0.0
 1 H  f0              0.0       0.0       0.0       0.0       1.8       0.0
 1 H  f+1             0.1       0.0       4.6       0.0       0.0       2.6
 1 H  f-1             0.0       0.0       0.0       0.3       0.0       0.0
 1 H  f+2             0.0       0.0       0.0       0.0       3.0       0.0
 1 H  f-2             0.0       7.3       0.0       0.0       0.0       0.0
 1 H  f+3             0.2       0.0       2.7       0.0       0.0       4.3
 1 H  f-3             0.0       0.0       0.0       4.5       0.0       0.0

                     24        25        26        27        28        29   
                   3.08550   3.83655   4.20442   4.20442   5.77743   5.77743
                   0.00000   0.00000   0.00000   0.00000   0.00000   0.00000
                  --------  --------  --------  --------  --------  --------
 0 H  s              25.4      32.3       0.0       0.0       0.0       0.0
 0 H  pz              0.0       0.0      23.0       0.0       0.0       0.0
 0 H  px             20.2      11.5       0.0       0.0       0.0       0.0
 0 H  py              0.0       0.0       0.0      23.0       0.0       0.0
 0 H  dz2             1.1       0.9       0.0       0.0       0.0       0.0
 0 H  dxz             0.0       0.0      13.3       0.0       0.0       0.0
 0 H  dx2y2           3.3       2.7       0.0       0.0       0.0       0.0
 0 H  dxy             0.0       0.0       0.0      13.3       0.0       0.0
 0 H  f0              0.0       0.0       5.1       0.0       0.8      30.5
 0 H  f+1             0.0       1.0       0.0       0.0       0.0       0.0
 0 H  f-1             0.0       0.0       0.0       0.9      45.7       1.2
 0 H  f+2             0.0       0.0       8.5       0.0       0.5      18.3
 0 H  f+3             0.0       1.7       0.0       0.0       0.0       0.0
 0 H  f-3             0.0       0.0       0.0      12.8       3.0       0.1
 1 H  s              25.4      32.3       0.0       0.0       0.0       0.0
 1 H  pz              0.0       0.0      23.0       0.0       0.0       0.0
 1 H  px             20.2      11.5       0.0       0.0       0.0       0.0
 1 H  py              0.0       0.0       0.0      23.0       0.0       0.0
 1 H  dz2             1.1       0.9       0.0       0.0       0.0       0.0
 1 H  dxz             0.0       0.0      13.3       0.0       0.0       0.0
 1 H  dx2y2           3.3       2.7       0.0       0.0       0.0       0.0
 1 H  dxy             0.0       0.0       0.0      13.3       0.0       0.0
 1 H  f0              0.0       0.0       5.1       0.0       0.8      30.5
 1 H  f+1             0.0       1.0       0.0       0.0       0.0       0.0
 1 H  f-1             0.0       0.0       0.0       0.9      45.7       1.2
 1 H  f+2             0.0       0.0       8.5       0.0       0.5      18.3
 1 H  f+3             0.0       1.7       0.0       0.0       0.0       0.0
 1 H  f-3             0.0       0.0       0.0      12.8       3.0       0.1

                     30        31        32        33        34        35   
                   6.07288   6.80274   6.87720   6.87720   6.90425   6.90425
                   0.00000   0.00000   0.00000   0.00000   0.00000   0.00000
                  --------  --------  --------  --------  --------  --------
 0 H  s               1.9      11.5       0.0       0.0       0.0       0.0
 0 H  px              4.9       7.8       0.0       0.0       0.0       0.0
 0 H  dz2             1.4       7.7      10.3       0.0       3.5       0.0
 0 H  dyz             0.0       0.0       0.0      13.8       0.0       4.7
 0 H  dx2y2           4.2      23.0       3.4       0.0       1.2       0.0
 0 H  f+1            14.1       0.0      22.5       0.1      28.3       0.0
 0 H  f-2             0.0       0.0       0.1      36.1       0.0      45.3
 0 H  f+3            23.5       0.1      13.5       0.0      17.0       0.0
 1 H  s               1.9      11.5       0.0       0.0       0.0       0.0
 1 H  px              4.9       7.8       0.0       0.0       0.0       0.0
 1 H  dz2             1.4       7.7      10.3       0.0       3.5       0.0
 1 H  dyz             0.0       0.0       0.0      13.8       0.0       4.7
 1 H  dx2y2           4.2      23.0       3.4       0.0       1.2       0.0
 1 H  f+1            14.1       0.0      22.5       0.1      28.3       0.0
 1 H  f-2             0.0       0.0       0.1      36.1       0.0      45.3
 1 H  f+3            23.5       0.1      13.5       0.0      17.0       0.0

                     36        37        38        39        40        41   
                   7.07472   7.07472   7.11290   7.11290   7.12060   7.12060
                   0.00000   0.00000   0.00000   0.00000   0.00000   0.00000
                  --------  --------  --------  --------  --------  --------
 0 H  pz             15.9       0.0       7.0       0.1       0.0       0.0
 0 H  py              0.0      15.9       0.1       7.0       0.0       0.0
 0 H  dxz             3.5       0.0       7.5       0.1       0.0       0.0
 0 H  dxy             0.0       3.5       0.1       7.5       0.0       0.0
 0 H  f0             11.5       0.0      13.2       0.1      31.0       0.2
 0 H  f-1             0.0       1.9       0.0       2.2       0.4      46.5
 0 H  f+2            19.1       0.0      22.0       0.2      18.6       0.1
 0 H  f-3             0.0      28.7       0.2      32.9       0.0       3.1
 1 H  pz             15.9       0.0       7.0       0.1       0.0       0.0
 1 H  py              0.0      15.9       0.1       7.0       0.0       0.0
 1 H  dxz             3.5       0.0       7.5       0.1       0.0       0.0
 1 H  dxy             0.0       3.5       0.1       7.5       0.0       0.0
 1 H  f0             11.5       0.0      13.2       0.1      31.0       0.2
 1 H  f-1             0.0       1.9       0.0       2.2       0.4      46.5
 1 H  f+2            19.1       0.0      22.0       0.2      18.6       0.1
 1 H  f-3             0.0      28.7       0.2      32.9       0.0       3.1

                     42        43        44        45        46        47   
                   7.28873   7.28873   7.66895   7.76661   7.89712   7.89712
                   0.00000   0.00000   0.00000   0.00000   0.00000   0.00000
                  --------  --------  --------  --------  --------  --------
 0 H  s               0.0       0.0       4.7       2.1       0.0       0.0
 0 H  pz              0.0      19.3       0.0       0.0       0.0       0.0
 0 H  px              0.0       0.0       7.3      33.8       0.0       0.0
 0 H  py             19.3       0.0       0.0       0.0       0.0       0.0
 0 H  dz2             0.0       0.0       1.5       1.3       0.1      34.0
 0 H  dxz             0.0      28.1       0.0       0.0       0.0       0.0
 0 H  dyz             0.0       0.0       0.0       0.0      45.3       0.1
 0 H  dx2y2           0.0       0.0       4.5       3.8       0.0      11.3
 0 H  dxy            28.1       0.0       0.0       0.0       0.0       0.0
 0 H  f0              0.0       1.0       0.0       0.0       0.0       0.0
 0 H  f+1             0.0       0.0      12.0       3.4       0.0       2.8
 0 H  f-1             0.2       0.0       0.0       0.0       0.0       0.0
 0 H  f+2             0.0       1.7       0.0       0.0       0.0       0.0
 0 H  f-2             0.0       0.0       0.0       0.0       4.5       0.0
 0 H  f+3             0.0       0.0      20.0       5.7       0.0       1.7
 0 H  f-3             2.5       0.0       0.0       0.0       0.0       0.0
 1 H  s               0.0       0.0       4.7       2.1       0.0       0.0
 1 H  pz              0.0      19.3       0.0       0.0       0.0       0.0
 1 H  px              0.0       0.0       7.3      33.8       0.0       0.0
 1 H  py             19.3       0.0       0.0       0.0       0.0       0.0
 1 H  dz2             0.0       0.0       1.5       1.3       0.1      34.0
 1 H  dxz             0.0      28.1       0.0       0.0       0.0       0.0
 1 H  dyz             0.0       0.0       0.0       0.0      45.3       0.1
 1 H  dx2y2           0.0       0.0       4.5       3.8       0.0      11.3
 1 H  dxy            28.1       0.0       0.0       0.0       0.0       0.0
 1 H  f0              0.0       1.0       0.0       0.0       0.0       0.0
 1 H  f+1             0.0       0.0      12.0       3.4       0.0       2.8
 1 H  f-1             0.2       0.0       0.0       0.0       0.0       0.0
 1 H  f+2             0.0       1.7       0.0       0.0       0.0       0.0
 1 H  f-2             0.0       0.0       0.0       0.0       4.5       0.0
 1 H  f+3             0.0       0.0      20.0       5.7       0.0       1.7
 1 H  f-3             2.5       0.0       0.0       0.0       0.0       0.0

                     48        49        50        51        52        53   
                   8.76081   9.06344   9.06344  10.66786  10.66786  11.37383
                   0.00000   0.00000   0.00000   0.00000   0.00000   0.00000
                  --------  --------  --------  --------  --------  --------
 0 H  s               1.1       0.0       0.0       0.0       0.0       0.0
 0 H  pz              0.0      44.6       0.0       0.0      15.5       0.0
 0 H  px             14.1       0.0       0.0       0.0       0.0       0.0
 0 H  py              0.0       0.0      44.6      15.5       0.0       0.0
 0 H  dz2             8.1       0.0       0.0       0.0       0.0       1.0
 0 H  dxz             0.0       4.6       0.0       0.0      23.1       0.0
 0 H  dyz             0.0       0.0       0.0       0.0       0.0      42.1
 0 H  dx2y2          24.4       0.0       0.0       0.0       0.0       0.3
 0 H  dxy             0.0       0.0       4.6      23.1       0.0       0.0
 0 H  f0              0.0       0.3       0.0       0.0       4.3       0.0
 0 H  f+1             0.8       0.0       0.0       0.0       0.0       0.1
 0 H  f-1             0.0       0.0       0.1       0.7       0.0       0.0
 0 H  f+2             0.0       0.5       0.0       0.0       7.1       0.0
 0 H  f-2             0.0       0.0       0.0       0.0       0.0       6.3
 0 H  f+3             1.4       0.0       0.0       0.0       0.0       0.1
 0 H  f-3             0.0       0.0       0.8      10.7       0.0       0.0
 1 H  s               1.1       0.0       0.0       0.0       0.0       0.0
 1 H  pz              0.0      44.6       0.0       0.0      15.5       0.0
 1 H  px             14.1       0.0       0.0       0.0       0.0       0.0
 1 H  py              0.0       0.0      44.6      15.5       0.0       0.0
 1 H  dz2             8.1       0.0       0.0       0.0       0.0       1.0
 1 H  dxz             0.0       4.6       0.0       0.0      23.1       0.0
 1 H  dyz             0.0       0.0       0.0       0.0       0.0      42.1
 1 H  dx2y2          24.4       0.0       0.0       0.0       0.0       0.3
 1 H  dxy             0.0       0.0       4.6      23.1       0.0       0.0
 1 H  f0              0.0       0.3       0.0       0.0       4.3       0.0
 1 H  f+1             0.8       0.0       0.0       0.0       0.0       0.1
 1 H  f-1             0.0       0.0       0.1       0.7       0.0       0.0
 1 H  f+2             0.0       0.5       0.0       0.0       7.1       0.0
 1 H  f-2             0.0       0.0       0.0       0.0       0.0       6.3
 1 H  f+3             1.4       0.0       0.0       0.0       0.0       0.1
 1 H  f-3             0.0       0.0       0.8      10.7       0.0       0.0

                     54        55        56        57        58        59   
                  11.37383  11.99517  15.14392  15.14392  15.97176  18.59392
                   0.00000   0.00000   0.00000   0.00000   0.00000   0.00000
                  --------  --------  --------  --------  --------  --------
 0 H  s               0.0      11.2       0.0       0.0      27.4      25.3
 0 H  pz              0.0       0.0      23.0       0.3       0.0       0.0
 0 H  px              0.0      20.9       0.0       0.0      19.2      12.9
 0 H  py              0.0       0.0       0.3      23.0       0.0       0.0
 0 H  dz2            31.6       2.7       0.0       0.0       0.7       2.8
 0 H  dxz             0.0       0.0      26.2       0.4       0.0       0.0
 0 H  dyz             1.3       0.0       0.0       0.0       0.0       0.0
 0 H  dx2y2          10.5       8.0       0.0       0.0       2.2       8.4
 0 H  dxy             0.0       0.0       0.4      26.2       0.0       0.0
 0 H  f+1             4.0       2.7       0.0       0.0       0.2       0.3
 0 H  f-2             0.2       0.0       0.0       0.0       0.0       0.0
 0 H  f+3             2.4       4.5       0.0       0.0       0.3       0.4
 1 H  s               0.0      11.2       0.0       0.0      27.4      25.3
 1 H  pz              0.0       0.0      23.0       0.3       0.0       0.0
 1 H  px              0.0      20.9       0.0       0.0      19.2      12.9
 1 H  py              0.0       0.0       0.3      23.0       0.0       0.0
 1 H  dz2            31.6       2.7       0.0       0.0       0.7       2.8
 1 H  dxz             0.0       0.0      26.2       0.4       0.0       0.0
 1 H  dyz             1.3       0.0       0.0       0.0       0.0       0.0
 1 H  dx2y2          10.5       8.0       0.0       0.0       2.2       8.4
 1 H  dxy             0.0       0.0       0.4      26.2       0.0       0.0
 1 H  f+1             4.0       2.7       0.0       0.0       0.2       0.3
 1 H  f-2             0.2       0.0       0.0       0.0       0.0       0.0
 1 H  f+3             2.4       4.5       0.0       0.0       0.3       0.4


----------------------------
LOEWDIN REDUCED ACTIVE MOs  
----------------------------

                      0         1         2         3         4         5   
                  -0.67730   1.01456   0.17930   0.19642   0.53414   0.53414
                   1.98897   0.01103   0.00000   0.00000   0.00000   0.00000
                  --------  --------  --------  --------  --------  --------
 0 H  s              47.2      10.1      49.1      47.6       0.0       0.0
 0 H  pz              0.0       0.0       0.0       0.0      49.9       0.0
 0 H  px              2.4      34.8       0.9       2.1       0.0       0.0
 0 H  py              0.0       0.0       0.0       0.0       0.0      49.9
 1 H  s              47.2      10.1      49.1      47.6       0.0       0.0
 1 H  pz              0.0       0.0       0.0       0.0      49.9       0.0
 1 H  px              2.4      34.8       0.9       2.1       0.0       0.0
 1 H  py              0.0       0.0       0.0       0.0       0.0      49.9

------------------------------------------------------------------------------
                           ORCA POPULATION ANALYSIS
------------------------------------------------------------------------------
Input electron density              ... H2_0_1_CASPT2-2-2_def2-qzvpp.sp.scfp
BaseName (.gbw .S,...)              ... H2_0_1_CASPT2-2-2_def2-qzvpp.sp

                    ********************************
                    * MULLIKEN POPULATION ANALYSIS *
                    ********************************

-----------------------
MULLIKEN ATOMIC CHARGES
-----------------------
   0 H :   -0.000000
   1 H :    0.000000
Sum of atomic charges:   -0.0000000

--------------------------------
MULLIKEN REDUCED ORBITAL CHARGES
--------------------------------
  0 H s       :     0.988774  s :     0.988774
      pz      :     0.000000  p :     0.011189
      px      :     0.011189
      py      :     0.000000
      dz2     :     0.000009  d :     0.000037
      dxz     :     0.000000
      dyz     :    -0.000000
      dx2y2   :     0.000028
      dxy     :    -0.000000
      f0      :    -0.000000  f :    -0.000000
      f+1     :    -0.000000
      f-1     :     0.000000
      f+2     :    -0.000000
      f-2     :     0.000000
      f+3     :    -0.000000
      f-3     :    -0.000000
  1 H s       :     0.988774  s :     0.988774
      pz      :     0.000000  p :     0.011189
      px      :     0.011189
      py      :     0.000000
      dz2     :     0.000009  d :     0.000037
      dxz     :     0.000000
      dyz     :     0.000000
      dx2y2   :     0.000028
      dxy     :     0.000000
      f0      :    -0.000000  f :    -0.000000
      f+1     :    -0.000000
      f-1     :     0.000000
      f+2     :    -0.000000
      f-2     :    -0.000000
      f+3     :    -0.000000
      f-3     :    -0.000000

------------------------
MULLIKEN OVERLAP CHARGES
------------------------
B(  0-H ,  1-H ) :   0.8991 


                     *******************************
                     * LOEWDIN POPULATION ANALYSIS *
                     *******************************

----------------------
LOEWDIN ATOMIC CHARGES
----------------------
   0 H :    0.000000
   1 H :    0.000000

-------------------------------
LOEWDIN REDUCED ORBITAL CHARGES
-------------------------------
  0 H s       :     0.940644  s :     0.940644
      pz      :     0.000000  p :     0.051679
      px      :     0.051679
      py      :     0.000000
      dz2     :     0.001750  d :     0.006998
      dxz     :     0.000000
      dyz     :     0.000000
      dx2y2   :     0.005249
      dxy     :     0.000000
      f0      :     0.000000  f :     0.000678
      f+1     :     0.000254
      f-1     :     0.000000
      f+2     :     0.000000
      f-2     :     0.000000
      f+3     :     0.000424
      f-3     :     0.000000
  1 H s       :     0.940644  s :     0.940644
      pz      :     0.000000  p :     0.051679
      px      :     0.051679
      py      :     0.000000
      dz2     :     0.001750  d :     0.006998
      dxz     :     0.000000
      dyz     :     0.000000
      dx2y2   :     0.005249
      dxy     :     0.000000
      f0      :     0.000000  f :     0.000678
      f+1     :     0.000254
      f-1     :     0.000000
      f+2     :     0.000000
      f-2     :     0.000000
      f+3     :     0.000424
      f-3     :     0.000000

---------------------------------
LOEWDIN BOND ORDERS (THRESH 0.050000)
---------------------------------
B(  0-H ,  1-H ) :   0.9888 


                      *****************************
                      * MAYER POPULATION ANALYSIS *
                      *****************************

  NA   - Mulliken gross atomic population
  ZA   - Total nuclear charge
  QA   - Mulliken gross atomic charge
  VA   - Mayer's total valence
  BVA  - Mayer's bonded valence
  FA   - Mayer's free valence

  ATOM       NA         ZA         QA         VA         BVA        FA
  0 H      1.0000     1.0000    -0.0000     1.0081     0.9861     0.0219
  1 H      1.0000     1.0000     0.0000     1.0081     0.9861     0.0219

  Mayer bond orders larger than 0.100000
B(  0-H ,  1-H ) :   0.9861 


----------------------------------------------------------------
                           < CASPT2  >                          
----------------------------------------------------------------

SYSTEM-SPECIFIC SETTINGS:
Number of active electrons          ...    2
Number of active orbitals           ...    2
Total number of electrons           ...    2
Total number of orbitals            ...   60

Determined orbital ranges:
   Internal       0 -   -1 (   0 orbitals)
   Active         0 -    1 (   2 orbitals)
   External       2 -   59 (  58 orbitals)
  Last  frozen  orbital             ... -1
  First deleted orbital             ... 60
Number of multiplicity blocks       ...    1
BLOCK  1 WEIGHT=   1.0000
  Multiplicity                      ...    1
  #(Configurations)                 ...    3
  #(CSFs)                           ...    3
  #(Roots)                          ...    1
  PrintLevel                        ...    1

INTEGRAL-TRANSFORMATION-STEP:
  Algorithm                         ... EXACT

PT2-SETTINGS:
  CASPT2 Real Levelshift            ...  0.00e+00
  CASPT2 Im.  Levelshift            ...  0.00e+00
  CASPT2 IPEA Levelshift            ...  0.00e+00
 CI step strategy                   ... General CI
  D4C handling                      ... on the disk 
  CI truncation for D4C at          ...  1.00e-10
  CI truncation for D3  at          ...  1.00e-14
  NThresh (linear dependencies)     ...  1.00e-06
  Orbitals                          ... canonical for each state 
  PrintLevel                        ... 1 

 --------------------
  MULT 1, ROOT 0 
 --------------------
   --- Canonicalize Internal Space
   --- Canonicalize External Space

Entering the partial transformation section

-------------------------------
PARTIAL INTEGRAL TRANSFORMATION
-------------------------------

Dimension of the basis                     ...           60
Number of internal MOs                     ...            2 (0-1)
Pair cutoff                                ...    2.500e-12 Eh
Number of AO pairs included in the trafo   ...         1830
Total Number of distinct AO pairs          ...         1830
Memory devoted for trafo                   ...          968 MB 
Memory needed per MO pair                  ...            0 MB
Max. Number of MO pairs treated together   ...        69332 
Memory needed per MO                       ...            1 MB
Max. Number of MOs treated per batch       ...            2 
Number Format for Storage                  ... Double (8 Byte)
Integral package used                      ... LIBINT

 --->>> The Coulomb operators (i,j|mue,nue) will be calculated
 --->>> The Exchange operators (i,mue|j,nue) will be calculated

Starting integral evaluation:
<ss|**>:         7560 b        0 skpd     0.008 s (  0.001 ms/b)
<sp|**>:        10080 b        0 skpd     0.014 s (  0.001 ms/b)
<sd|**>:         6720 b        0 skpd     0.018 s (  0.003 ms/b)
<sf|**>:         3360 b        0 skpd     0.016 s (  0.005 ms/b)
<pp|**>:         4410 b        0 skpd     0.013 s (  0.003 ms/b)
<pd|**>:         5040 b        0 skpd     0.029 s (  0.006 ms/b)
<pf|**>:         2520 b        0 skpd     0.022 s (  0.009 ms/b)
<dd|**>:         2100 b        0 skpd     0.021 s (  0.010 ms/b)
<df|**>:         1680 b        0 skpd     0.028 s (  0.017 ms/b)
<ff|**>:          630 b        0 skpd     0.017 s (  0.027 ms/b)
Collecting buffer AOJ 
    ... done with AO integral generation
Closing buffer AOJ ( 0.00 GB; CompressionRatio= 1.17)
Number of MO pairs included in the trafo   ...    3
    ... Now performing second half transformation
Closing buffer JAO ( 0.00 GB; CompressionRatio= 1.00)
Closing buffer KAO ( 0.00 GB; CompressionRatio= 1.00)
TOTAL TIME for half transformation ...     0.203 sec
AO-integral generation             ...     0.132 sec
Quarter transformation             ...     0.056 sec
J-operator construction            ...     0.006 sec
K-operator construction            ...     0.008 sec
Collecting buffer JAO 
Collecting buffer KAO 
   ... leaving the partial transformation section

     D1, D2 Build      ... done in        0.0 sec
     D3 Build          ... CI space truncated: 3 -> 2 CFGs 
                       ... RI space truncated: 3 -> 3 CFGs 
                       ... 
                       ... correcting norm (1.000000e+00) 
                       ... done in        0.0 sec
     Hole densities    ... done in        0.0 sec
     Calc Fock         ... done in        0.0 sec
 Rebuild D4 OnDisk for CASPT    ...
data streamed 0.00 GB
                       ... density        0.0 sec
                       ... 
     Class TUAB        ...  ERROR! All eigenvalues are <= 0 !!
Skipped =     10092 of        13456 LowestEV= 1.335934e+00 ... done in        0.0 sec 
     Class TUVA        ... Skipped =       348 of          464 LowestEV= 6.586368e-01 ... done in        0.0 sec 

-----------------------------------
 CASPT2-D Energy =     -0.022007009
-----------------------------------

Class V0_ijab: dE=      0.000000000
Class Vm1_iab: dE=      0.000000000
Class Vm2_ab : dE=     -0.022007002
Class V1_ija : dE=      0.000000000
Class V2_ij  : dE=      0.000000000
Class V0_ia  : dE=      0.000000000
Class Vm1_a  : dE=     -0.000000007
Class V1_i   : dE=      0.000000000

smallest energy denominator TUAB =      1.694529294
smallest energy denominator TUVA =      0.837934283

 Iter           EPT2     EHylleraas  residual norm    Time
    1    -0.02200701    -0.02200711     0.01144970     0.0
    2    -0.02200711    -0.02203464     0.00321185     0.0
    3    -0.02203263    -0.02203652     0.00072307     0.0
    4    -0.02203630    -0.02203669     0.00008812     0.0
    5    -0.02203666    -0.02203669     0.00001427     0.0
    6    -0.02203669    -0.02203669     0.00000215     0.0

 CASPT2 calculation converged in 6 iterations 


 Reference Weight =      0.994939498

 ===============================================================
                       CASPT2 Results  
 ===============================================================
   *********************
    MULT 1, ROOT 0 
   *********************

  Class V0_ijab :	 dE = 0.000000000000 
  Class Vm1_iab :	 dE = 0.000000000000 
  Class Vm2_ab  :	 dE = -0.022036636803 
  Class V1_ija  :	 dE = 0.000000000000 
  Class V2_ij   :	 dE = 0.000000000000 
  Class V0_ia   :	 dE = 0.000000000000 
  Class Vm1_a   :	 dE = -0.000000054572 
  Class V1_i    :	 dE = 0.000000000000 

 --------------------------------------------------------------- 
 	 Total Energy Correction : dE = -0.02203669137526
 --------------------------------------------------------------- 
 	 Reference  Energy       : E0 = -1.07859826901489
 	 Reference Weight        : W0 = 0.99493949813494
 --------------------------------------------------------------- 
 	 Total Energy (E0+dE)    : E  = -1.10063496039014
 --------------------------------------------------------------- 

--------------
TIMINGS CASPT2
--------------

Sum of individual times        ...        2.0 sec (100.0%)

   Integraltransformation      ...        0.2 sec ( 11.0%)
   Building Fock and alike     ...        0.0 sec (  0.2%)
   Building D2,D1              ...        0.0 sec (  0.0%)
   Building D3                 ...        0.0 sec (  0.0%)
   Building D4                 ...        0.0 sec (  0.3%)
   All densities               ...        0.0 sec (  0.3%)
   Hole Densities              ...        0.0 sec (  0.0%)
   Re-Canonicalization         ...        0.1 sec (  5.5%)
   Classes Vijab               ...        0.0 sec (  0.0%)
   Class Viab                  ...        0.0 sec (  0.0%)
   Class Vab                   ...        0.0 sec (  0.0%)
   Class Vija                  ...        0.0 sec (  0.0%)
   Class Vij                   ...        0.0 sec (  0.0%)
   Class Via                   ...        0.0 sec (  0.0%)
   Class Va                    ...        0.0 sec (  0.1%)
   Class Vi                    ...        0.0 sec (  0.0%)
   All Classes                 ...        1.7 sec ( 83.0%)

-------------------------------------------------------------
 Forming the transition density       ... done in 0.001758 sec
-------------------------------------------------------------



==========================================
CASSCF UV, CD spectra and dipole moments
==========================================
-------------------
ABSORPTION SPECTRUM
-------------------

Center of mass           = (  0.4736,  0.0000,  0.0000)
Nuclear contribution to the dipole moment =     0.000000,    0.000000,    0.000000 au

Calculating the dipole integrals                  ... done
Transforming integrals                            ... done
Calculating the Linear Momentum integrals         ... done
Transforming integrals                            ... done
Calculating the Angular Momentum integrals        ... done
Transforming integrals                            ... done

Ground state mult:    1
Ground state block:   0
Ground state root:    0


------------------------------------------------------------------------------
                                 DIPOLE MOMENTS
------------------------------------------------------------------------------
  Root  Block           TX        TY        TZ           |T|
                      (Debye)   (Debye)   (Debye)      (Debye)
------------------------------------------------------------------------------
    0    0           -0.00000  -0.00000  -0.00000      0.00000


=====================================================================
CASSCF (CASPT2 diagonal energies) UV, CD spectra and dipole moments
=====================================================================
-------------------
ABSORPTION SPECTRUM
-------------------

Center of mass           = (  0.4736,  0.0000,  0.0000)
Nuclear contribution to the dipole moment =     0.000000,    0.000000,    0.000000 au

Calculating the dipole integrals                  ... done
Transforming integrals                            ... done
Calculating the Linear Momentum integrals         ... done
Transforming integrals                            ... done
Calculating the Angular Momentum integrals        ... done
Transforming integrals                            ... done

Ground state mult:    1
Ground state block:   0
Ground state root:    0


------------------------------------------------------------------------------
                                 DIPOLE MOMENTS
------------------------------------------------------------------------------
  Root  Block           TX        TY        TZ           |T|
                      (Debye)   (Debye)   (Debye)      (Debye)
------------------------------------------------------------------------------
    0    0           -0.00000  -0.00000  -0.00000      0.00000

--------------
CASSCF TIMINGS
--------------

Total time                       ...        4.4 sec
Sum of individual times          ...        4.2 sec ( 95.2%)

Calculation of AO operators
   F(Core) operator              ...        0.0 sec (  0.4%)
   G(Act) operator               ...        0.6 sec ( 14.2%)
   J(AO) operators               ...        0.0 sec (  0.0%)
Calculation of MO transformed quantities
   J(MO) operators               ...        1.3 sec ( 30.4%)
   (pq|rs) integrals             ...        0.0 sec (  0.0%)
   AO->MO one electron integrals ...        0.0 sec (  0.0%)
Configuration interaction steps
   CI-setup phase                ...        0.0 sec (  0.0%)
   CI-solution phase             ...        0.1 sec (  2.9%)
   Generation of densities       ...        0.0 sec (  0.0%)
Orbital improvement steps
   Orbital gradient              ...        0.0 sec (  0.1%)
   O(1) converger                ...        0.0 sec (  0.2%)
PT2 
   CASPT2 time                   ...        2.0 sec ( 46.7%)
Properties                       ...        0.0 sec (  0.3%)
   SOC integral calculation      ...        0.0 sec (  0.0%)
   SSC RMEs (incl. integrals)    ...        0.0 sec (  0.0%)
   SOC RMEs                      ...        0.0 sec (  0.0%)

-------------------------   --------------------
FINAL SINGLE POINT ENERGY        -1.100634960390
-------------------------   --------------------

Storing actual gbw-file in H2_0_1_CASPT2-2-2_def2-qzvpp.sp.001.gbw ... done

                            ***************************************
                            *     ORCA property calculations      *
                            ***************************************

                                    ---------------------
                                    Active property flags
                                    ---------------------
   (+) Dipole Moment


------------------------------------------------------------------------------
                       ORCA ELECTRIC PROPERTIES CALCULATION
------------------------------------------------------------------------------

Dipole Moment Calculation                       ... on
Quadrupole Moment Calculation                   ... off
Polarizability Calculation                      ... off
GBWName                                         ... H2_0_1_CASPT2-2-2_def2-qzvpp.sp.gbw
Electron density file                           ... H2_0_1_CASPT2-2-2_def2-qzvpp.sp.scfp
The origin for moment calculation is the CENTER OF MASS  = ( 0.473553,  0.000000  0.000000)

-------------
DIPOLE MOMENT
-------------
                                X             Y             Z
Electronic contribution:     -0.00000      -0.00000      -0.00000
Nuclear contribution   :      0.00000       0.00000       0.00000
                        -----------------------------------------
Total Dipole Moment    :     -0.00000      -0.00000      -0.00000
                        -----------------------------------------
Magnitude (a.u.)       :      0.00000
Magnitude (Debye)      :      0.00000



--------------------
Rotational spectrum 
--------------------
 
Rotational constants in cm-1:     0.000000   133.157724   133.157724 
Rotational constants in MHz :     0.000000 3991968.149099 3991968.149099 

 Dipole components along the rotational axes: 
x,y,z [a.u.] :    -0.000000    -0.000000    -0.000000 
x,y,z [Debye]:    -0.000000    -0.000000    -0.000000 

 

         *************************************************************
                                TRAJECTORY STEP   2
                RHH  :   0.60842987
         *************************************************************
---------------------------------
CARTESIAN COORDINATES (ANGSTROEM)
---------------------------------
  H      0.000000    0.000000    0.000000
  H      0.608430    0.000000    0.000000

----------------------------
CARTESIAN COORDINATES (A.U.)
----------------------------
  NO LB      ZA    FRAG     MASS         X           Y           Z
   0 H     1.0000    0     1.008    0.000000    0.000000    0.000000
   1 H     1.0000    0     1.008    1.149766    0.000000    0.000000

--------------------------------
INTERNAL COORDINATES (ANGSTROEM)
--------------------------------
 H      0   0   0     0.000000000000     0.00000000     0.00000000
 H      1   0   0     0.608429869077     0.00000000     0.00000000

---------------------------
INTERNAL COORDINATES (A.U.)
---------------------------
 H      0   0   0     0.000000000000     0.00000000     0.00000000
 H      1   0   0     1.149765824252     0.00000000     0.00000000


Diagonalization of the overlap matrix:
Smallest eigenvalue                        ... 8.441e-05
Time for diagonalization                   ...    0.002 sec
Threshold for overlap eigenvalues          ... 1.000e-08
Number of eigenvalues below threshold      ... 0
Time for construction of square roots      ...    0.002 sec
Total time needed                          ...    0.003 sec



 ... the calculation is a CASSCF calculation -I'm leaving here GOOD LUCK!!!

-------------------------------------------------------------------------------
                              ORCA-CASSCF
-------------------------------------------------------------------------------

Setting up the integral package       ... done
Building the CAS space                ... done (3 configurations for Mult=1)
Note: CASPT2 memory consumption cannot be estimated prior run.

SYSTEM-SPECIFIC SETTINGS:
Number of active electrons          ...    2
Number of active orbitals           ...    2
Total number of electrons           ...    2
Total number of orbitals            ...   60

Determined orbital ranges:
   Internal       0 -   -1 (   0 orbitals)
   Active         0 -    1 (   2 orbitals)
   External       2 -   59 (  58 orbitals)
Number of rotation parameters      ...    116

CI-STEP:
CI strategy                         ... General CI
Number of multiplicity blocks       ...    1
BLOCK  1 WEIGHT=   1.0000
  Multiplicity                      ...    1
  #(Configurations)                 ...    3
  #(CSFs)                           ...    3
  #(Roots)                          ...    1
    ROOT=0 WEIGHT=    1.000000

  PrintLevel                        ...    1
  N(GuessMat)                       ...       512
  MaxDim(CI)                        ...        10
  MaxIter(CI)                       ...        64
  Energy Tolerance CI               ...  2.50e-09
  Residual Tolerance CI             ...  2.50e-09
  Shift(CI)                         ...  1.00e-04

INTEGRAL-TRANSFORMATION-STEP:
  Algorithm                         ... EXACT

ORBITAL-IMPROVEMENT-STEP:
  Algorithm                         ... SuperCI(PT)
  Default Parametrization           ... CAYLEY
  Act-Act rotations                 ... depends on algorithm used

  Note: SuperCI(PT) will ignore FreezeIE, FreezeAct and FreezeGrad. In general Default settings are encouraged.
        In conjunction with ShiftUp, ShiftDn or GradScaling the performance of SuperCI(PT) is less optimal.  

  MaxRot                            ... 2.00e-01 
  Max. no of vectors (DIIS)         ... 15
  DThresh (cut-off) metric          ... 1.00e-06
  Switch step at gradient           ...  3.00e-02 
  Switch step at iteration          ...        50   
  Switch step to                    ... SuperCI(PT)    

SCF-SETTINGS:
  Incremental                       ... on
  RIJCOSX approximation             ... off
  RI-JK approximation               ... off
  AO integral handling              ... DIRECT
  Integral Neglect Thresh           ...  2.50e-11
  Primitive cutoff TCut             ...  2.50e-12
  Energy convergence tolerance      ...  2.50e-08
  Orbital gradient convergence      ...  2.50e-04
  Max. number of iterations         ...        75  

PT2-SETTINGS:
  A PT2 calculation will be performed on top of the CASSCF wave function (PT2 = CASPT2)   
  CASPT2 Real Levelshift            ...  0.00e+00
  CASPT2 Im.  Levelshift            ...  0.00e+00
  CASPT2 IPEA Levelshift            ...  0.00e+00
 CI step strategy                   ... General CI
  D4C handling                      ... on the disk 
  CI truncation for D4C at          ...  1.00e-10
  CI truncation for D3  at          ...  1.00e-14
  Orbitals                          ... canonical for each state 
  Last  frozen  orbital             ... -1
  First deleted orbital             ... 60

PROPERTIES-SETTINGS:
  QDPT diagonal energies            ... CASPT2 energies 

FINAL ORBITALS:
  Active   Orbitals                 ... natural 
  Internal Orbitals                 ... canonical 
  External Orbitals                 ... canonical 

------------------
CAS-SCF ITERATIONS
------------------


MACRO-ITERATION   1: 
   --- Inactive Energy E0 = 0.86974232 Eh
CI-ITERATION   0: 
    -1.130708990   0.000000000000 (    0.00)
   CI-PROBLEM SOLVED
   DENSITIES MADE

                 <<<<<<<<<<<<<<<<<<INITIAL CI STATE CHECK>>>>>>>>>>>>>>>>>>

BLOCK  1 MULT= 1 NROOTS= 1 
ROOT   0:  E=      -1.1307089903 Eh
      0.99195 [     0]: 20
      0.00805 [     2]: 02

                 <<<<<<<<<<<<<<<<<<INITIAL CI STATE CHECK>>>>>>>>>>>>>>>>>>

   E(CAS)=    -1.130708990 Eh DE=     0.000000000
   --- Energy gap subspaces: Ext-Act = -0.679   Act-Int = 0.600
   N(occ)=  1.98390 0.01610
   ||g|| =      0.281073978 Max(G)=     0.150638039 Rot=59,0
   --- Orbital Update [SuperCI(PT)]
   --- Canonicalize Internal Space
   --- Canonicalize External Space
   --- SX_PT (Skipped TA=0 IT=0): ||X|| =      0.033924859 Max(X)(2,0) =      0.017872623 
   --- SFit(Active Orbitals)

MACRO-ITERATION   2: 
   --- Inactive Energy E0 = 0.86974232 Eh
CI-ITERATION   0: 
    -1.133813869   0.000000000000 (    0.00)
   CI-PROBLEM SOLVED
   DENSITIES MADE
   E(CAS)=    -1.133813869 Eh DE=    -0.003104879
   --- Energy gap subspaces: Ext-Act = -0.662   Act-Int = 0.600
   N(occ)=  1.98458 0.01542
   ||g|| =      0.027389573 Max(G)=    -0.018205105 Rot=10,0
   --- Orbital Update [SuperCI(PT)]
   --- Canonicalize Internal Space
   --- Canonicalize External Space
   --- SX_PT (Skipped TA=0 IT=0): ||X|| =      0.013966638 Max(X)(9,1) =     -0.007863620 
   --- SFit(Active Orbitals)

MACRO-ITERATION   3: 
   --- Inactive Energy E0 = 0.86974232 Eh
CI-ITERATION   0: 
    -1.133887561   0.000000000000 (    0.00)
   CI-PROBLEM SOLVED
   DENSITIES MADE
   E(CAS)=    -1.133887561 Eh DE=    -0.000073692
   --- Energy gap subspaces: Ext-Act = -0.640   Act-Int = 0.600
   N(occ)=  1.98445 0.01555
   ||g|| =      0.004221987 Max(G)=    -0.002759888 Rot=10,0
   --- Orbital Update [SuperCI(PT)]
   --- Canonicalize Internal Space
   --- Canonicalize External Space
   --- SX_PT (Skipped TA=0 IT=0): ||X|| =      0.006293409 Max(X)(9,1) =      0.003703120 
   --- SFit(Active Orbitals)

MACRO-ITERATION   4: 
   --- Inactive Energy E0 = 0.86974232 Eh
CI-ITERATION   0: 
    -1.133892939   0.000000000000 (    0.00)
   CI-PROBLEM SOLVED
   DENSITIES MADE
   E(CAS)=    -1.133892939 Eh DE=    -0.000005378
   --- Energy gap subspaces: Ext-Act = -0.625   Act-Int = 0.600
   N(occ)=  1.98428 0.01572
   ||g|| =      0.000822071 Max(G)=     0.000381001 Rot=10,0
   --- Orbital Update [SuperCI(PT)]
   --- Canonicalize Internal Space
   --- Canonicalize External Space
   --- SX_PT (Skipped TA=0 IT=0): ||X|| =      0.000226441 Max(X)(23,1) =     -0.000129858 
   --- SFit(Active Orbitals)

MACRO-ITERATION   5: 
   --- Inactive Energy E0 = 0.86974232 Eh
CI-ITERATION   0: 
    -1.133892993   0.000000000000 (    0.00)
   CI-PROBLEM SOLVED
   DENSITIES MADE
   E(CAS)=    -1.133892993 Eh DE=    -0.000000055
   --- Energy gap subspaces: Ext-Act = -0.625   Act-Int = 0.600
   N(occ)=  1.98427 0.01573
   ||g|| =      0.000096863 Max(G)=    -0.000065905 Rot=9,0
                     ---- THE CAS-SCF GRADIENT HAS CONVERGED ----
                            --- FINALIZING ORBITALS ---
                    ---- DOING ONE FINAL ITERATION FOR PRINTING ----
   --- Forming Natural Orbitals
   --- Canonicalize Internal Space
   --- Canonicalize External Space

MACRO-ITERATION   6: 
   --- Inactive Energy E0 = 0.86974232 Eh
   --- All densities will be recomputed
CI-ITERATION   0: 
    -1.133892993   0.000000000000 (    0.00)
   CI-PROBLEM SOLVED
   DENSITIES MADE
   E(CAS)=    -1.133892993 Eh DE=    -0.000000000
   --- Energy gap subspaces: Ext-Act = -0.631   Act-Int = 0.600
   N(occ)=  1.98427 0.01573
   ||g|| =      0.000096863 Max(G)=    -0.000064977 Rot=8,0
--------------
CASSCF RESULTS
--------------

Final CASSCF energy       : -1.133892993 Eh     -30.8548 eV


---------------------------------------------
CAS-SCF STATES FOR BLOCK  1 MULT= 1 NROOTS= 1
---------------------------------------------

ROOT   0:  E=      -1.1338929934 Eh
      0.99214 [     0]: 20
      0.00786 [     2]: 02


--------------
DENSITY MATRIX
--------------

                   0          1    
      0       1.984275  -0.000000
      1      -0.000000   0.015725
Trace of the electron density:  2.000000

-----------------
ENERGY COMPONENTS
-----------------

One electron energy          :     -2.686497760 Eh         -73.1033 eV
Two electron energy          :      0.682862443 Eh          18.5816 eV
Nuclear repulsion energy     :      0.869742324 Eh          23.6669 eV
                               ----------------
                                   -1.133892993

Kinetic energy               :      1.313985854 Eh          35.7554 eV
Potential energy             :     -2.447878847 Eh         -66.6102 eV
Virial ratio                 :     -1.862941553 
                               ----------------
                                   -1.133892993

Core energy                  :      0.869742324 Eh       23.6669 eV


----------------------------
LOEWDIN REDUCED ACTIVE MOs  
----------------------------

                      0         1         2         3         4         5   
                  -0.63360   0.81552   0.18436   0.20673   0.52349   0.52349
                   1.98427   0.01573   0.00000   0.00000   0.00000   0.00000
                  --------  --------  --------  --------  --------  --------
 0 H  s              47.0      13.7      48.7      47.5       0.0       0.0
 0 H  pz              0.0       0.0       0.0       0.0      49.8       0.1
 0 H  px              2.5      30.9       1.2       1.9       0.0       0.0
 0 H  py              0.0       0.0       0.0       0.0       0.1      49.8
 1 H  s              47.0      13.7      48.7      47.5       0.0       0.0
 1 H  pz              0.0       0.0       0.0       0.0      49.8       0.1
 1 H  px              2.5      30.9       1.2       1.9       0.0       0.0
 1 H  py              0.0       0.0       0.0       0.0       0.1      49.8


----------------------------------------------------------------
                           < CASPT2  >                          
----------------------------------------------------------------

SYSTEM-SPECIFIC SETTINGS:
Number of active electrons          ...    2
Number of active orbitals           ...    2
Total number of electrons           ...    2
Total number of orbitals            ...   60

Determined orbital ranges:
   Internal       0 -   -1 (   0 orbitals)
   Active         0 -    1 (   2 orbitals)
   External       2 -   59 (  58 orbitals)
  Last  frozen  orbital             ... -1
  First deleted orbital             ... 60
Number of multiplicity blocks       ...    1
BLOCK  1 WEIGHT=   1.0000
  Multiplicity                      ...    1
  #(Configurations)                 ...    3
  #(CSFs)                           ...    3
  #(Roots)                          ...    1
  PrintLevel                        ...    1

INTEGRAL-TRANSFORMATION-STEP:
  Algorithm                         ... EXACT

PT2-SETTINGS:
  CASPT2 Real Levelshift            ...  0.00e+00
  CASPT2 Im.  Levelshift            ...  0.00e+00
  CASPT2 IPEA Levelshift            ...  0.00e+00
 CI step strategy                   ... General CI
  D4C handling                      ... on the disk 
  CI truncation for D4C at          ...  1.00e-10
  CI truncation for D3  at          ...  1.00e-14
  NThresh (linear dependencies)     ...  1.00e-06
  Orbitals                          ... canonical for each state 
  PrintLevel                        ... 1 

 --------------------
  MULT 1, ROOT 0 
 --------------------
   --- Canonicalize Internal Space
   --- Canonicalize External Space

Entering the partial transformation section

-------------------------------
PARTIAL INTEGRAL TRANSFORMATION
-------------------------------

Dimension of the basis                     ...           60
Number of internal MOs                     ...            2 (0-1)
Pair cutoff                                ...    2.500e-12 Eh
Number of AO pairs included in the trafo   ...         1830
Total Number of distinct AO pairs          ...         1830
Memory devoted for trafo                   ...          968 MB 
Memory needed per MO pair                  ...            0 MB
Max. Number of MO pairs treated together   ...        69332 
Memory needed per MO                       ...            1 MB
Max. Number of MOs treated per batch       ...            2 
[...]

Determined orbital ranges:
   Internal       0 -   -1 (   0 orbitals)
   Active         0 -    1 (   2 orbitals)
   External       2 -   59 (  58 orbitals)
  Last  frozen  orbital             ... -1
  First deleted orbital             ... 60
Number of multiplicity blocks       ...    1
BLOCK  1 WEIGHT=   1.0000
  Multiplicity                      ...    1
  #(Configurations)                 ...    3
  #(CSFs)                           ...    3
  #(Roots)                          ...    1
  PrintLevel                        ...    1

INTEGRAL-TRANSFORMATION-STEP:
  Algorithm                         ... EXACT

PT2-SETTINGS:
  CASPT2 Real Levelshift            ...  0.00e+00
  CASPT2 Im.  Levelshift            ...  0.00e+00
  CASPT2 IPEA Levelshift            ...  0.00e+00
 CI step strategy                   ... General CI
  D4C handling                      ... on the disk 
  CI truncation for D4C at          ...  1.00e-10
  CI truncation for D3  at          ...  1.00e-14
  NThresh (linear dependencies)     ...  1.00e-06
  Orbitals                          ... canonical for each state 
  PrintLevel                        ... 1 

 --------------------
  MULT 1, ROOT 0 
 --------------------
   --- Canonicalize Internal Space
   --- Canonicalize External Space

Entering the partial transformation section

-------------------------------
PARTIAL INTEGRAL TRANSFORMATION
-------------------------------

Dimension of the basis                     ...           60
Number of internal MOs                     ...            2 (0-1)
Pair cutoff                                ...    2.500e-12 Eh
Number of AO pairs included in the trafo   ...          930
Total Number of distinct AO pairs          ...         1830
Memory devoted for trafo                   ...          968 MB 
Memory needed per MO pair                  ...            0 MB
Max. Number of MO pairs treated together   ...        69332 
Memory needed per MO                       ...            1 MB
Max. Number of MOs treated per batch       ...            2 
Number Format for Storage                  ... Double (8 Byte)
Integral package used                      ... LIBINT

 --->>> The Coulomb operators (i,j|mue,nue) will be calculated
 --->>> The Exchange operators (i,mue|j,nue) will be calculated

Starting integral evaluation:
<ss|**>:         2200 b        0 skpd     0.003 s (  0.001 ms/b)
<sp|**>:         2640 b        0 skpd     0.005 s (  0.002 ms/b)
<sd|**>:         1760 b        0 skpd     0.006 s (  0.003 ms/b)
<sf|**>:          880 b        0 skpd     0.005 s (  0.006 ms/b)
<pp|**>:         1320 b        0 skpd     0.005 s (  0.004 ms/b)
<pd|**>:         1320 b        0 skpd     0.010 s (  0.008 ms/b)
<pf|**>:          660 b        0 skpd     0.008 s (  0.012 ms/b)
<dd|**>:          660 b        0 skpd     0.008 s (  0.013 ms/b)
<df|**>:          440 b        0 skpd     0.010 s (  0.022 ms/b)
<ff|**>:          220 b        0 skpd     0.007 s (  0.031 ms/b)
Collecting buffer AOJ 
    ... done with AO integral generation
Closing buffer AOJ ( 0.00 GB; CompressionRatio= 1.40)
Number of MO pairs included in the trafo   ...    3
    ... Now performing second half transformation
Closing buffer JAO ( 0.00 GB; CompressionRatio= 1.00)
Closing buffer KAO ( 0.00 GB; CompressionRatio= 1.00)
TOTAL TIME for half transformation ...     0.082 sec
AO-integral generation             ...     0.040 sec
Quarter transformation             ...     0.029 sec
J-operator construction            ...     0.005 sec
K-operator construction            ...     0.008 sec
Collecting buffer JAO 
Collecting buffer KAO 
   ... leaving the partial transformation section

     D1, D2 Build      ... done in        0.0 sec
     D3 Build          ... CI space truncated: 3 -> 2 CFGs 
                       ... RI space truncated: 3 -> 3 CFGs 
                       ... 
                       ... correcting norm (1.000000e+00) 
                       ... done in        0.0 sec
     Hole densities    ... done in        0.0 sec
     Calc Fock         ... done in        0.0 sec
 Rebuild D4 OnDisk for CASPT    ...
data streamed 0.00 GB
                       ... density        0.0 sec
                       ... 
     Class TUAB        ...  ERROR! All eigenvalues are <= 0 !!
Skipped =     10092 of        13456 LowestEV= 3.749557e-01 ... done in        0.0 sec 
     Class TUVA        ... Skipped =       348 of          464 LowestEV= 1.874720e-01 ... done in        0.0 sec 

-----------------------------------
 CASPT2-D Energy =     -0.000000008
-----------------------------------

Class V0_ijab: dE=      0.000000000
Class Vm1_iab: dE=      0.000000000
Class Vm2_ab : dE=     -0.000000001
Class V1_ija : dE=      0.000000000
Class V2_ij  : dE=      0.000000000
Class V0_ia  : dE=      0.000000000
Class Vm1_a  : dE=     -0.000000007
Class V1_i   : dE=      0.000000000

smallest energy denominator TUAB =      0.859189743
smallest energy denominator TUVA =      0.429588996

 Iter           EPT2     EHylleraas  residual norm    Time
    1    -0.00000001    -0.00000001     0.00001391     0.0

 CASPT2 calculation converged in 1 iterations 


 Reference Weight =      0.999999983

 ===============================================================
                       CASPT2 Results  
 ===============================================================
   *********************
    MULT 1, ROOT 0 
   *********************

  Class V0_ijab :	 dE = 0.000000000000 
  Class Vm1_iab :	 dE = 0.000000000000 
  Class Vm2_ab  :	 dE = -0.000000001053 
  Class V1_ija  :	 dE = 0.000000000000 
  Class V2_ij   :	 dE = 0.000000000000 
  Class V0_ia   :	 dE = 0.000000000000 
  Class Vm1_a   :	 dE = -0.000000007393 
  Class V1_i    :	 dE = 0.000000000000 

 --------------------------------------------------------------- 
 	 Total Energy Correction : dE = -0.00000000844600
 --------------------------------------------------------------- 
 	 Reference  Energy       : E0 = -0.99996659106594
 	 Reference Weight        : W0 = 0.99999998275199
 --------------------------------------------------------------- 
 	 Total Energy (E0+dE)    : E  = -0.99996659951194
 --------------------------------------------------------------- 

--------------
TIMINGS CASPT2
--------------

Sum of individual times        ...        2.0 sec (100.0%)

   Integraltransformation      ...        0.1 sec (  5.1%)
   Building Fock and alike     ...        0.0 sec (  0.2%)
   Building D2,D1              ...        0.0 sec (  0.0%)
   Building D3                 ...        0.0 sec (  0.0%)
   Building D4                 ...        0.0 sec (  0.4%)
   All densities               ...        0.0 sec (  0.4%)
   Hole Densities              ...        0.0 sec (  0.0%)
   Re-Canonicalization         ...        0.0 sec (  0.8%)
   Classes Vijab               ...        0.0 sec (  0.0%)
   Class Viab                  ...        0.0 sec (  0.0%)
   Class Vab                   ...        0.0 sec (  0.0%)
   Class Vija                  ...        0.0 sec (  0.0%)
   Class Vij                   ...        0.0 sec (  0.0%)
   Class Via                   ...        0.0 sec (  0.0%)
   Class Va                    ...        0.0 sec (  0.1%)
   Class Vi                    ...        0.0 sec (  0.0%)
   All Classes                 ...        1.9 sec ( 93.6%)

-------------------------------------------------------------
 Forming the transition density       ... done in 0.002415 sec
-------------------------------------------------------------



==========================================
CASSCF UV, CD spectra and dipole moments
==========================================
-------------------
ABSORPTION SPECTRUM
-------------------

Center of mass           = ( 18.8525,  0.0000,  0.0000)
Nuclear contribution to the dipole moment =     0.000000,    0.000000,    0.000000 au

Calculating the dipole integrals                  ... done
Transforming integrals                            ... done
Calculating the Linear Momentum integrals         ... done
Transforming integrals                            ... done
Calculating the Angular Momentum integrals        ... done
Transforming integrals                            ... done

Ground state mult:    1
Ground state block:   0
Ground state root:    0


------------------------------------------------------------------------------
                                 DIPOLE MOMENTS
------------------------------------------------------------------------------
  Root  Block           TX        TY        TZ           |T|
                      (Debye)   (Debye)   (Debye)      (Debye)
------------------------------------------------------------------------------
    0    0           -0.00000   0.00000  -0.00000      0.00000


=====================================================================
CASSCF (CASPT2 diagonal energies) UV, CD spectra and dipole moments
=====================================================================
-------------------
ABSORPTION SPECTRUM
-------------------

Center of mass           = ( 18.8525,  0.0000,  0.0000)
Nuclear contribution to the dipole moment =     0.000000,    0.000000,    0.000000 au

Calculating the dipole integrals                  ... done
Transforming integrals                            ... done
Calculating the Linear Momentum integrals         ... done
Transforming integrals                            ... done
Calculating the Angular Momentum integrals        ... done
Transforming integrals                            ... done

Ground state mult:    1
Ground state block:   0
Ground state root:    0


------------------------------------------------------------------------------
                                 DIPOLE MOMENTS
------------------------------------------------------------------------------
  Root  Block           TX        TY        TZ           |T|
                      (Debye)   (Debye)   (Debye)      (Debye)
------------------------------------------------------------------------------
    0    0           -0.00000   0.00000  -0.00000      0.00000

--------------
CASSCF TIMINGS
--------------

Total time                       ...        2.3 sec
Sum of individual times          ...        2.2 sec ( 95.1%)

Calculation of AO operators
   F(Core) operator              ...        0.0 sec (  0.2%)
   G(Act) operator               ...        0.0 sec (  1.0%)
   J(AO) operators               ...        0.0 sec (  0.0%)
Calculation of MO transformed quantities
   J(MO) operators               ...        0.2 sec (  6.6%)
   (pq|rs) integrals             ...        0.0 sec (  0.0%)
   AO->MO one electron integrals ...        0.0 sec (  0.0%)
Configuration interaction steps
   CI-setup phase                ...        0.0 sec (  0.0%)
   CI-solution phase             ...        0.0 sec (  1.4%)
   Generation of densities       ...        0.0 sec (  0.0%)
Orbital improvement steps
   Orbital gradient              ...        0.0 sec (  0.1%)
PT2 
   CASPT2 time                   ...        2.0 sec ( 85.2%)
Properties                       ...        0.0 sec (  0.5%)
   SOC integral calculation      ...        0.0 sec (  0.0%)
   SSC RMEs (incl. integrals)    ...        0.0 sec (  0.0%)
   SOC RMEs                      ...        0.0 sec (  0.0%)

-------------------------   --------------------
FINAL SINGLE POINT ENERGY        -0.999966599512
-------------------------   --------------------

Storing actual gbw-file in H2_0_1_CASPT2-2-2_def2-qzvpp.sp.020.gbw ... done

                            ***************************************
                            *     ORCA property calculations      *
                            ***************************************

                                    ---------------------
                                    Active property flags
                                    ---------------------
   (+) Dipole Moment


------------------------------------------------------------------------------
                       ORCA ELECTRIC PROPERTIES CALCULATION
------------------------------------------------------------------------------

Dipole Moment Calculation                       ... on
Quadrupole Moment Calculation                   ... off
Polarizability Calculation                      ... off
GBWName                                         ... H2_0_1_CASPT2-2-2_def2-qzvpp.sp.gbw
Electron density file                           ... H2_0_1_CASPT2-2-2_def2-qzvpp.sp.scfp
The origin for moment calculation is the CENTER OF MASS  = (18.852497,  0.000000  0.000000)

-------------
DIPOLE MOMENT
-------------
                                X             Y             Z
Electronic contribution:      0.00000       0.00000      -0.00000
Nuclear contribution   :     -0.00000       0.00000       0.00000
                        -----------------------------------------
Total Dipole Moment    :     -0.00000       0.00000      -0.00000
                        -----------------------------------------
Magnitude (a.u.)       :      0.00000
Magnitude (Debye)      :      0.00000



--------------------
Rotational spectrum 
--------------------
 
Rotational constants in cm-1:     0.000000     0.084017     0.084017 
Rotational constants in MHz :     0.000000  2518.761623  2518.761623 

 Dipole components along the rotational axes: 
x,y,z [a.u.] :    -0.000000     0.000000    -0.000000 
x,y,z [Debye]:    -0.000000     0.000000    -0.000000 

 
                              **** TRAJECTORY DONE ***

                         SUMMARY OF THE CALCULATED SURFACE

------------------
TRAJECTORY RESULTS
------------------

Column   1: RHH

The Calculated Surface using the 'Actual Energy'
   0.50118723  -1.10063496
   0.60842987  -1.15435236
   0.73861998  -1.17061947
   0.89666781  -1.15941845
   1.08853427  -1.13011693
   1.32145577  -1.09184815
   1.60421716  -1.05374389
   1.94748304  -1.02426541
   2.36419999  -1.00784992
   2.87008485  -1.00173307
   3.48421754  -1.00023921
   4.22976062  -0.99999933
   5.13483291  -0.99997150
   6.23357002  -0.99996782
   7.56741181  -0.99996695
   9.18666532  -0.99996671
  11.15240214  -0.99996663
  13.53876180  -0.99996661
  16.43574799  -0.99996660
  19.95262315  -0.99996660

                        *******************************
                        *   FIT OF THE ACT-ENERGY PES *
                        *******************************
-------------------------------
POTENTIAL ENERGY SURFACE =   0
-------------------------------

Minimum found after 21 iterations
Equilibrium distance and its energy from the interpolated PES:
  Re      =   0.72781 Angstroem  (  1.37536 Bohr)
  E(Re)   =    -1.170683 Eh 
  dE/dR   = 2.573e-10 (-1.148e-01 CHEB)
  d2E/dR2 =    0.331427 (   0.792486 CHEB) (  -0.012751 NUM)
  d3E/dR3 =   -4.126892 (  -2.977127 CHEB)

Spectroscopic constants:
  we =    4185.2 cm**-1 (based on SPLINE)
  we =    6471.7 cm**-1 (based on CHEB)
  we =      -nan cm**-1 (based on NUM)

Performing Morse fit ...
Morse-Fit Results:
 Te(adiabatic)   =    -350.5 cm**-1         = -0.043 eV
 d2E/dR**2 (Morse)=      0.405048203 
 d3E/dR**3 (Morse)=     -1.314471391 
 d4E/dR**4 (Morse)=      3.317806835 
 E0               =     -1.172279907 Eh  RMS=2.27e-06
 Re               =   0.74485 Angstroem      =  1.40757 Bohr RMS=4.13e-06)
 De(Morse)        =   4.70957 eV             =  37985.2 cm**-1 RMS=2.69e-06
 D0(Morse)        =   4.42275 eV
 beta             =   1.08174 au          RMS=1.51e-05
 we               =   4626.7 cm**-1
 wexe             =    140.8 cm**-1
 Displacement   =    0.0170 Angstroem      =  0.03221 Bohr

The Calculated Surface using the SCF energy
   0.50118723  -1.07859827
   0.60842987  -1.13389299
   0.73861998  -1.15202480
   0.89666781  -1.14300750
   1.08853427  -1.11629979
   1.32145577  -1.08112065
   1.60421716  -1.04655434
   1.94748304  -1.02054612
   2.36419999  -1.00651129
   2.87008485  -1.00140271
   3.48421754  -1.00017489
   4.22976062  -0.99998520
   5.13483291  -0.99996767
   6.23357002  -0.99996667
   7.56741181  -0.99996660
   9.18666532  -0.99996659
  11.15240214  -0.99996659
  13.53876180  -0.99996659
  16.43574799  -0.99996659
  19.95262315  -0.99996659

                        *******************************
                        *       FIT OF THE SCF PES    *
                        *******************************
-------------------------------
POTENTIAL ENERGY SURFACE =   0
-------------------------------

Minimum found after 25 iterations
Equilibrium distance and its energy from the interpolated PES:
  Re      =   0.74190 Angstroem  (  1.40200 Bohr)
  E(Re)   =    -1.152030 Eh 
  dE/dR   = -9.969e-09 (-1.202e-01 CHEB)
  d2E/dR2 =    0.245897 (   0.782640 CHEB) (  -0.010747 NUM)
  d3E/dR3 =   -0.059446 (  -2.947833 CHEB)

Spectroscopic constants:
  we =    3604.9 cm**-1 (based on SPLINE)
  we =    6431.3 cm**-1 (based on CHEB)
  we =      -nan cm**-1 (based on NUM)

Performing Morse fit ...
Morse-Fit Results:
 Te(adiabatic)   =    -357.1 cm**-1         = -0.044 eV
 d2E/dR**2 (Morse)=      0.379752019 
 d3E/dR**3 (Morse)=     -1.263572921 
 d4E/dR**4 (Morse)=      3.270062550 
 E0               =     -1.153656472 Eh  RMS=1.34e-06
 Re               =   0.75419 Angstroem      =  1.42520 Bohr RMS=1.16e-05)
 De(Morse)        =   4.20013 eV             =  33876.3 cm**-1 RMS=1.72e-06
 D0(Morse)        =   3.92241 eV
 beta             =   1.10912 au          RMS=1.96e-05
 we               =   4479.9 cm**-1
 wexe             =    148.0 cm**-1
 Displacement   =    0.0123 Angstroem      =  0.02321 Bohr

The Calculated Surfaces using the CASPT2 energies
   0.50118723  -1.10063496
   0.60842987  -1.15435236
   0.73861998  -1.17061947
   0.89666781  -1.15941845
   1.08853427  -1.13011693
   1.32145577  -1.09184815
   1.60421716  -1.05374389
   1.94748304  -1.02426541
   2.36419999  -1.00784992
   2.87008485  -1.00173307
   3.48421754  -1.00023921
   4.22976062  -0.99999933
   5.13483291  -0.99997150
   6.23357002  -0.99996782
   7.56741181  -0.99996695
   9.18666532  -0.99996671
  11.15240214  -0.99996663
  13.53876180  -0.99996661
  16.43574799  -0.99996660
  19.95262315  -0.99996660

                        *******************************
                        *     FIT OF THE CASPT2 PES   *
                        *******************************
-------------------------------
POTENTIAL ENERGY SURFACE =   0
-------------------------------

Minimum found after 21 iterations
Equilibrium distance and its energy from the interpolated PES:
  Re      =   0.72781 Angstroem  (  1.37536 Bohr)
  E(Re)   =    -1.170683 Eh 
  dE/dR   = 2.573e-10 (-1.148e-01 CHEB)
  d2E/dR2 =    0.331427 (   0.792486 CHEB) (  -0.012751 NUM)
  d3E/dR3 =   -4.126892 (  -2.977127 CHEB)

Spectroscopic constants:
  we =    4185.2 cm**-1 (based on SPLINE)
  we =    6471.7 cm**-1 (based on CHEB)
  we =      -nan cm**-1 (based on NUM)

Performing Morse fit ...
Morse-Fit Results:
 Te(adiabatic)   =    -350.5 cm**-1         = -0.043 eV
 d2E/dR**2 (Morse)=      0.405048203 
 d3E/dR**3 (Morse)=     -1.314471391 
 d4E/dR**4 (Morse)=      3.317806835 
 E0               =     -1.172279907 Eh  RMS=2.27e-06
 Re               =   0.74485 Angstroem      =  1.40757 Bohr RMS=4.13e-06)
 De(Morse)        =   4.70957 eV             =  37985.2 cm**-1 RMS=2.69e-06
 D0(Morse)        =   4.42275 eV
 beta             =   1.08174 au          RMS=1.51e-05
 we               =   4626.7 cm**-1
 wexe             =    140.8 cm**-1
 Displacement   =    0.0170 Angstroem      =  0.03221 Bohr


Timings for individual modules:

Sum of individual times         ...      134.270 sec (=   2.238 min)
GTO integral calculation        ...        4.829 sec (=   0.080 min)   3.6 %
SCF iterations                  ...        0.890 sec (=   0.015 min)   0.7 %
CASSCF iterations               ...      128.552 sec (=   2.143 min)  95.7 %
                             ****ORCA TERMINATED NORMALLY****
TOTAL RUN TIME: 0 days 0 hours 2 minutes 16 seconds 522 msec
