
                                 *****************
                                 * O   R   C   A *
                                 *****************

           --- An Ab Initio, DFT and Semiempirical electronic structure package ---

                  #######################################################
                  #                        -***-                        #
                  #          Department of theory and spectroscopy      #
                  #               Directorship: Frank Neese             #
                  #        Max Planck Institute fuer Kohlenforschung    #
                  #                Kaiser Wilhelm Platz 1               #
                  #                 D-45470 Muelheim/Ruhr               #
                  #                      Germany                        #
                  #                                                     #
                  #                  All rights reserved                #
                  #                        -***-                        #
                  #######################################################


                         Program Version 4.2.0 -  RELEASE  -


 With contributions from (in alphabetic order):
   Daniel Aravena         : Magnetic Suceptibility
   Michael Atanasov       : Ab Initio Ligand Field Theory (pilot matlab implementation)
   Alexander A. Auer      : GIAO ZORA, VPT2
   Ute Becker             : Parallelization
   Giovanni Bistoni       : ED, misc. LED, open-shell LED, HFLED
   Martin Brehm           : Molecular dynamics
   Dmytro Bykov           : SCF Hessian
   Vijay G. Chilkuri      : MRCI spin determinant printing, contributions to CSF-ICE
   Dipayan Datta          : RHF DLPNO-CCSD density
   Achintya Kumar Dutta   : EOM-CC, STEOM-CC
   Dmitry Ganyushin       : Spin-Orbit,Spin-Spin,Magnetic field MRCI
   Miquel Garcia          : C-PCM Hessian, Gaussian charge scheme
   Yang Guo               : DLPNO-NEVPT2, CIM, IAO-localization
   Andreas Hansen         : Spin unrestricted coupled pair/coupled cluster methods
   Benjamin Helmich-Paris : CASSCF linear response (MC-RPA)
   Lee Huntington         : MR-EOM, pCC
   Robert Izsak           : Overlap fitted RIJCOSX, COSX-SCS-MP3, EOM
   Christian Kollmar      : KDIIS, OOCD, Brueckner-CCSD(T), CCSD density
   Simone Kossmann        : Meta GGA functionals, TD-DFT gradient, OOMP2, MP2 Hessian
   Martin Krupicka        : AUTO-CI
   Lucas Lang             : DCDCAS
   Dagmar Lenk            : GEPOL surface, SMD
   Dimitrios Liakos       : Extrapolation schemes; Compound Job, initial MDCI parallelization
   Dimitrios Manganas     : Further ROCIS development; embedding schemes
   Dimitrios Pantazis     : SARC Basis sets
   Taras Petrenko         : DFT Hessian,TD-DFT gradient, ASA, ECA, R-Raman, ABS, FL, XAS/XES, NRVS
   Peter Pinski           : DLPNO-MP2, DLPNO-MP2 Gradient
   Christoph Reimann      : Effective Core Potentials
   Marius Retegan         : Local ZFS, SOC
   Christoph Riplinger    : Optimizer, TS searches, QM/MM, DLPNO-CCSD(T), (RO)-DLPNO pert. Triples
   Tobias Risthaus        : Range-separated hybrids, TD-DFT gradient, RPA, STAB
   Michael Roemelt        : Original ROCIS implementation
   Masaaki Saitow         : Open-shell DLPNO-CCSD energy and density
   Barbara Sandhoefer     : DKH picture change effects
   Avijit Sen             : IP-ROCIS
   Kantharuban Sivalingam : CASSCF convergence, NEVPT2, FIC-MRCI
   Bernardo de Souza      : ESD, SOC TD-DFT
   Georgi Stoychev        : AutoAux, RI-MP2 NMR
   Willem Van den Heuvel  : Paramagnetic NMR
   Boris Wezisla          : Elementary symmetry handling
   Frank Wennmohs         : Technical directorship


 We gratefully acknowledge several colleagues who have allowed us to
 interface, adapt or use parts of their codes:
   Stefan Grimme, W. Hujo, H. Kruse,             : VdW corrections, initial TS optimization,
                  C. Bannwarth                     DFT functionals, gCP, sTDA/sTD-DF
   Ed Valeev, F. Pavosevic, A. Kumar             : LibInt (2-el integral package), F12 methods
   Garnet Chan, S. Sharma, J. Yang, R. Olivares  : DMRG
   Ulf Ekstrom                                   : XCFun DFT Library
   Mihaly Kallay                                 : mrcc  (arbitrary order and MRCC methods)
   Andreas Klamt, Michael Diedenhofen            : otool_cosmo (COSMO solvation model)
   Jiri Pittner, Ondrej Demel                    : Mk-CCSD
   Frank Weinhold                                : gennbo (NPA and NBO analysis)
   Christopher J. Cramer and Donald G. Truhlar   : smd solvation model
   Lars Goerigk                                  : TD-DFT with DH, B97 family of functionals
   V. Asgeirsson, H. Jonsson                     : NEB implementation
   FAccTs GmbH                                   : IRC, NEB, NEB-TS, Multilevel, MM, QM/MM, CI optimization
   S Lehtola, MJT Oliveira, MAL Marques          : LibXC Library


 Your calculation uses the libint2 library for the computation of 2-el integrals
 For citations please refer to: http://libint.valeyev.net

 Your ORCA version has been built with support for libXC version: 4.2.3
 For citations please refer to: https://tddft.org/programs/libxc/

 This ORCA versions uses:
   CBLAS   interface :  Fast vector & matrix operations
   LAPACKE interface :  Fast linear algebra routines
   SCALAPACK package :  Parallel linear algebra routines




***************************************
The coordinates will be read from file: benzene_0_1_bp86_6-31gpol.opt.xyz
***************************************


----- Orbital basis set information -----
Your calculation utilizes the basis: 6-31G*
   H-He, Li-Ne : W. J. Hehre, R. Ditchfield and J.A. Pople, J. Chem. Phys. 56, 2257 (1972).
                 Note: He and Ne are unpublished basis sets taken from the Gaussian program.
                 Note: Li and B from J. D. Dill and J. A. Pople, J. Chem. Phys. 62, 2921 (1975).
   Na - Ar     : M. M. Francl, W. J. Pietro, W. J. Hehre, J. S. Binkley, M. S. Gordon, 
                 D. J. DeFrees and J. A. Pople, J. Chem. Phys. 77, 3654 (1982).
   K - Zn      : V. A. Rassolov, J. A. Pople, M. A. Ratner, and T. L. Windus, J. Chem. Phys. 109, 1223 (1998).

----- AuxJ basis set information -----
Your calculation utilizes the AutoAux generation procedure.
  G. L. Stoychev, A. A. Auer, F. Neese, J. Chem. Theory Comput. 13, 554 (2017)

----- AuxC basis set information -----
Your calculation utilizes the AutoAux generation procedure.
  G. L. Stoychev, A. A. Auer, F. Neese, J. Chem. Theory Comput. 13, 554 (2017)

----- AuxJK basis set information -----
Your calculation utilizes the AutoAux generation procedure.
  G. L. Stoychev, A. A. Auer, F. Neese, J. Chem. Theory Comput. 13, 554 (2017)

================================================================================
                                        WARNINGS
                       Please study these warnings very carefully!
================================================================================


WARNING: Geometry Optimization
  ===> : Switching off AutoStart
         For restart on a previous wavefunction, please use MOREAD

INFO   : the flag for use of LIBINT has been found!

================================================================================
                                       INPUT FILE
================================================================================
NAME = benzene_0_3_bp86_6-31gpol.opt.inp
|  1> !uks bp86 6-31g* tightscf opt
|  2> !autoaux
|  3> !normalprint
|  4> !pal8
|  5> 
|  6> %scf
|  7>   maxiter 500
|  8> end
|  9> 
| 10> %geom
| 11>   maxiter 250
| 12> end
| 13> 
| 14> *xyzfile 0 3 benzene_0_1_bp86_6-31gpol.opt.xyz
| 15> 
| 16>                          ****END OF INPUT****
================================================================================

                       *****************************
                       * Geometry Optimization Run *
                       *****************************

Geometry optimization settings:
Update method            Update   .... BFGS
Choice of coordinates    CoordSys .... Z-matrix Internals
Initial Hessian          InHess   .... Almoef's Model

Convergence Tolerances:
Energy Change            TolE     ....  5.0000e-06 Eh
Max. Gradient            TolMAXG  ....  3.0000e-04 Eh/bohr
RMS Gradient             TolRMSG  ....  1.0000e-04 Eh/bohr
Max. Displacement        TolMAXD  ....  4.0000e-03 bohr
RMS Displacement         TolRMSD  ....  2.0000e-03 bohr
Strict Convergence                ....  False
------------------------------------------------------------------------------
                        ORCA OPTIMIZATION COORDINATE SETUP
------------------------------------------------------------------------------

The optimization will be done in new redundant internal coordinates
Making redundant internal coordinates   ...  (new redundants) done
Evaluating the initial hessian          ...  (Almloef) done
Evaluating the coordinates              ...  done
Calculating the B-matrix                .... done
Calculating the G-matrix                .... done
Diagonalizing the G-matrix              .... done
The first mode is                       ....   24
The number of degrees of freedom        ....   30

    -----------------------------------------------------------------
                    Redundant Internal Coordinates


    -----------------------------------------------------------------
         Definition                    Initial Value    Approx d2E/dq
    -----------------------------------------------------------------
      1. B(C   1,C   0)                  1.4041         0.593341   
      2. B(C   2,C   1)                  1.4043         0.592787   
      3. B(C   3,C   2)                  1.4045         0.592457   
      4. B(C   4,C   3)                  1.4040         0.593391   
      5. B(C   5,C   4)                  1.4043         0.592748   
      6. B(C   5,C   0)                  1.4044         0.592520   
      7. B(H   6,C   0)                  1.0960         0.352225   
      8. B(H   7,C   1)                  1.0957         0.352640   
      9. B(H   8,C   2)                  1.0955         0.352840   
     10. B(H   9,C   3)                  1.0960         0.352226   
     11. B(H  10,C   4)                  1.0957         0.352638   
     12. B(H  11,C   5)                  1.0955         0.352843   
     13. A(C   1,C   0,C   5)          119.9835         0.427163   
     14. A(C   1,C   0,H   6)          119.9898         0.348992   
     15. A(C   5,C   0,H   6)          120.0267         0.348911   
     16. A(C   2,C   1,H   7)          119.9979         0.349007   
     17. A(C   0,C   1,C   2)          120.0203         0.427197   
     18. A(C   0,C   1,H   7)          119.9818         0.349062   
     19. A(C   3,C   2,H   8)          120.0145         0.349007   
     20. A(C   1,C   2,H   8)          119.9889         0.349040   
     21. A(C   1,C   2,C   3)          119.9966         0.427083   
     22. A(C   4,C   3,H   9)          119.9946         0.348997   
     23. A(C   2,C   3,H   9)          120.0232         0.348905   
     24. A(C   2,C   3,C   4)          119.9822         0.427161   
     25. A(C   3,C   4,H  10)          119.9829         0.349066   
     26. A(C   3,C   4,C   5)          120.0216         0.427199   
     27. A(C   5,C   4,H  10)          119.9955         0.349002   
     28. A(C   0,C   5,C   4)          119.9958         0.427086   
     29. A(C   4,C   5,H  11)          119.9880         0.349037   
     30. A(C   0,C   5,H  11)          120.0162         0.349014   
     31. D(H   7,C   1,C   0,C   5)    179.9976         0.024241   
     32. D(H   7,C   1,C   0,H   6)     -0.0101         0.024241   
     33. D(C   2,C   1,C   0,H   6)    179.9937         0.024241   
     34. D(C   2,C   1,C   0,C   5)      0.0014         0.024241   
     35. D(H   8,C   2,C   1,C   0)    179.9929         0.024194   
     36. D(C   3,C   2,C   1,C   0)     -0.0020         0.024194   
     37. D(C   3,C   2,C   1,H   7)   -179.9982         0.024194   
     38. D(H   8,C   2,C   1,H   7)     -0.0033         0.024194   
     39. D(H   9,C   3,C   2,H   8)     -0.0007         0.024165   
     40. D(H   9,C   3,C   2,C   1)    179.9942         0.024165   
     41. D(C   4,C   3,C   2,H   8)   -179.9934         0.024165   
     42. D(C   4,C   3,C   2,C   1)      0.0015         0.024165   
     43. D(H  10,C   4,C   3,C   2)   -179.9915         0.024246   
     44. D(C   5,C   4,C   3,H   9)   -179.9931         0.024246   
     45. D(C   5,C   4,C   3,C   2)     -0.0004         0.024246   
     46. D(H  10,C   4,C   3,H   9)      0.0158         0.024246   
     47. D(H  11,C   5,C   4,H  10)     -0.0094         0.024190   
     48. D(C   0,C   5,C   4,H  10)    179.9909         0.024190   
     49. D(C   0,C   5,C   4,C   3)     -0.0002         0.024190   
     50. D(H  11,C   5,C   0,H   6)      0.0077         0.024171   
     51. D(H  11,C   5,C   0,C   1)    180.0000         0.024171   
     52. D(H  11,C   5,C   4,C   3)    179.9995         0.024190   
     53. D(C   4,C   5,C   0,H   6)   -179.9926         0.024171   
     54. D(C   4,C   5,C   0,C   1)     -0.0003         0.024171   
    -----------------------------------------------------------------

Number of atoms                         .... 12
Number of degrees of freedom            .... 54

         *************************************************************
         *                GEOMETRY OPTIMIZATION CYCLE   1            *
         *************************************************************
---------------------------------
CARTESIAN COORDINATES (ANGSTROEM)
---------------------------------
  C      1.392214   -0.223483    0.005510
  C      0.509870   -1.315569   -0.008856
  C     -0.877466   -1.097910   -0.013889
  C     -1.382664    0.212515   -0.004507
  C     -0.500318    1.304570    0.009868
  C      0.887037    1.086920    0.014878
  H      2.474890   -0.393936    0.009536
  H      0.904025   -2.337891   -0.016204
  H     -1.565462   -1.950407   -0.025216
  H     -2.465351    0.382893   -0.008526
  H     -0.894438    2.326907    0.017327
  H      1.575013    1.939431    0.026088

----------------------------
CARTESIAN COORDINATES (A.U.)
----------------------------
  NO LB      ZA    FRAG     MASS         X           Y           Z
   0 C     6.0000    0    12.011    2.630903   -0.422322    0.010412
   1 C     6.0000    0    12.011    0.963515   -2.486065   -0.016735
   2 C     6.0000    0    12.011   -1.658171   -2.074750   -0.026245
   3 C     6.0000    0    12.011   -2.612857    0.401596   -0.008518
   4 C     6.0000    0    12.011   -0.945465    2.465281    0.018648
   5 C     6.0000    0    12.011    1.676257    2.053981    0.028115
   6 H     1.0000    0     1.008    4.676865   -0.744431    0.018021
   7 H     1.0000    0     1.008    1.708359   -4.417974   -0.030621
   8 H     1.0000    0     1.008   -2.958295   -3.685734   -0.047652
   9 H     1.0000    0     1.008   -4.658838    0.723562   -0.016111
  10 H     1.0000    0     1.008   -1.690242    4.397217    0.032744
  11 H     1.0000    0     1.008    2.976344    3.664993    0.049300

--------------------------------
INTERNAL COORDINATES (ANGSTROEM)
--------------------------------
 C      0   0   0     0.000000000000     0.00000000     0.00000000
 C      1   0   0     1.404061298289     0.00000000     0.00000000
 C      2   1   0     1.404315883431   120.02033606     0.00000000
 C      3   2   1     1.404467342813   119.99662141     0.00000000
 C      4   3   2     1.404038732659   119.98220394     0.00000000
 C      5   4   3     1.404333452301   120.02159381     0.00000000
 H      1   2   3     1.096019209465   119.98978325   179.99369558
 H      2   1   3     1.095698170579   119.98175376   179.99616356
 H      3   2   1     1.095543904457   119.98887715   179.99288275
 H      4   3   2     1.096018017388   120.02318693   179.99424205
 H      5   4   3     1.095699834445   119.98294739   180.00846882
 H      6   5   4     1.095541859173   119.98800940   179.99953148

---------------------------
INTERNAL COORDINATES (A.U.)
---------------------------
 C      0   0   0     0.000000000000     0.00000000     0.00000000
 C      1   0   0     2.653291329005     0.00000000     0.00000000
 C      2   1   0     2.653772425200   120.02033606     0.00000000
 C      3   2   1     2.654058641952   119.99662141     0.00000000
 C      4   3   2     2.653248686143   119.98220394     0.00000000
 C      5   4   3     2.653805625553   120.02159381     0.00000000
 H      1   2   3     2.071176143406   119.98978325   179.99369558
 H      2   1   3     2.070569467832   119.98175376   179.99616356
 H      3   2   1     2.070277947111   119.98887715   179.99288275
 H      4   3   2     2.071173890707   120.02318693   179.99424205
 H      5   4   3     2.070572612084   119.98294739   180.00846882
 H      6   5   4     2.070274082084   119.98800940   179.99953148

---------------------
BASIS SET INFORMATION
---------------------
There are 2 groups of distinct atoms

 Group   1 Type C   : 10s4p1d contracted to 3s2p1d pattern {631/31/1}
 Group   2 Type H   : 4s contracted to 2s pattern {31}

Atom   0C    basis set group =>   1
Atom   1C    basis set group =>   1
Atom   2C    basis set group =>   1
Atom   3C    basis set group =>   1
Atom   4C    basis set group =>   1
Atom   5C    basis set group =>   1
Atom   6H    basis set group =>   2
Atom   7H    basis set group =>   2
Atom   8H    basis set group =>   2
Atom   9H    basis set group =>   2
Atom  10H    basis set group =>   2
Atom  11H    basis set group =>   2
---------------------------------
AUXILIARY/J BASIS SET INFORMATION
---------------------------------
There are 2 groups of distinct atoms

 Group   1 Type C   : 13s11p10d2f contracted to 13s11p10d2f pattern {1111111111111/11111111111/1111111111/11}
 Group   2 Type H   : 9s2p contracted to 9s2p pattern {111111111/11}

Atom   0C    basis set group =>   1
Atom   1C    basis set group =>   1
Atom   2C    basis set group =>   1
Atom   3C    basis set group =>   1
Atom   4C    basis set group =>   1
Atom   5C    basis set group =>   1
Atom   6H    basis set group =>   2
Atom   7H    basis set group =>   2
Atom   8H    basis set group =>   2
Atom   9H    basis set group =>   2
Atom  10H    basis set group =>   2
Atom  11H    basis set group =>   2
---------------------------------
AUXILIARY/C BASIS SET INFORMATION
---------------------------------
There are 2 groups of distinct atoms

 Group   1 Type C   : 13s11p10d2f contracted to 13s11p10d2f pattern {1111111111111/11111111111/1111111111/11}
 Group   2 Type H   : 9s2p contracted to 9s2p pattern {111111111/11}

Atom   0C    basis set group =>   1
Atom   1C    basis set group =>   1
Atom   2C    basis set group =>   1
Atom   3C    basis set group =>   1
Atom   4C    basis set group =>   1
Atom   5C    basis set group =>   1
Atom   6H    basis set group =>   2
Atom   7H    basis set group =>   2
Atom   8H    basis set group =>   2
Atom   9H    basis set group =>   2
Atom  10H    basis set group =>   2
Atom  11H    basis set group =>   2
----------------------------------
AUXILIARY/JK BASIS SET INFORMATION
----------------------------------
There are 2 groups of distinct atoms

 Group   1 Type C   : 13s11p10d2f contracted to 13s11p10d2f pattern {1111111111111/11111111111/1111111111/11}
 Group   2 Type H   : 9s2p contracted to 9s2p pattern {111111111/11}

Atom   0C    basis set group =>   1
Atom   1C    basis set group =>   1
Atom   2C    basis set group =>   1
Atom   3C    basis set group =>   1
Atom   4C    basis set group =>   1
Atom   5C    basis set group =>   1
Atom   6H    basis set group =>   2
Atom   7H    basis set group =>   2
Atom   8H    basis set group =>   2
Atom   9H    basis set group =>   2
Atom  10H    basis set group =>   2
Atom  11H    basis set group =>   2


           ************************************************************
           *        Program running with 8 parallel MPI-processes     *
           *              working on a common directory               *
           ************************************************************
------------------------------------------------------------------------------
                           ORCA GTO INTEGRAL CALCULATION
                           -- RI-GTO INTEGRALS CHOSEN --
------------------------------------------------------------------------------

                         BASIS SET STATISTICS AND STARTUP INFO

Gaussian basis set:
 # of primitive gaussian shells          ...  114
 # of primitive gaussian functions       ...  186
 # of contracted shells                  ...   48
 # of contracted basis functions         ...   96
 Highest angular momentum                ...    2
 Maximum contraction depth               ...    6
Auxiliary gaussian basis set:
 # of primitive gaussian shells          ...  282
 # of primitive gaussian functions       ...  750
 # of contracted shells                  ...  282
 # of contracted aux-basis functions     ...  750
 Highest angular momentum                ...    3
 Maximum contraction depth               ...    1
Ratio of auxiliary to basis functions    ...  7.81
Integral package used                  ... LIBINT
 One Electron integrals                  ... done
 Ordering auxiliary basis shells         ... done
 Integral threshhold             Thresh  ...  2.500e-11
 Primitive cut-off               TCut    ...  2.500e-12
 Pre-screening matrix                    ... done
 Shell pair data                         ... 
 Ordering of the shell pairs             ... done (   0.000 sec) 1158 of 1176 pairs
 Determination of significant pairs      ... done (   0.000 sec)
 Creation of shell pair data             ... done (   0.000 sec)
 Storage of shell pair data              ... done (   0.006 sec)
 Shell pair data done in (   0.007 sec)
 Computing two index integrals           ... done
 Cholesky decomposition of the V-matrix  ... done


Timings:
 Total evaluation time                   ...   0.160 sec (  0.003 min)
 One electron matrix time                ...   0.013 sec (  0.000 min) =  7.9%
 Schwartz matrix evaluation time         ...   0.096 sec (  0.002 min) = 59.8%
 Two index repulsion integral time       ...   0.015 sec (  0.000 min) =  9.1%
 Cholesky decomposition of V             ...   0.012 sec (  0.000 min) =  7.6%
 Three index repulsion integral time     ...   0.000 sec (  0.000 min) =  0.0%



           ************************************************************
           *        Program running with 8 parallel MPI-processes     *
           *              working on a common directory               *
           ************************************************************
-------------------------------------------------------------------------------
                                 ORCA SCF
-------------------------------------------------------------------------------

------------
SCF SETTINGS
------------
Hamiltonian:
 Density Functional     Method          .... DFT(GTOs)
 Exchange Functional    Exchange        .... B88
   X-Alpha parameter    XAlpha          ....  0.666667
   Becke's b parameter  XBeta           ....  0.004200
 Correlation Functional Correlation     .... P86
 LDA part of GGA corr.  LDAOpt          .... PW91-LDA
 Gradients option       PostSCFGGA      .... off
   Density functional embedding theory  .... OFF
 RI-approximation to the Coulomb term is turned on
   Number of auxiliary basis functions  .... 750


General Settings:
 Integral files         IntName         .... benzene_0_3_bp86_6-31gpol.opt
 Hartree-Fock type      HFTyp           .... UHF
 Total Charge           Charge          ....    0
 Multiplicity           Mult            ....    3
 Number of Electrons    NEL             ....   42
 Basis Dimension        Dim             ....   96
 Nuclear Repulsion      ENuc            ....    202.0010497832 Eh

Convergence Acceleration:
 DIIS                   CNVDIIS         .... on
   Start iteration      DIISMaxIt       ....    12
   Startup error        DIISStart       ....  0.200000
   # of expansion vecs  DIISMaxEq       ....     5
   Bias factor          DIISBfac        ....   1.050
   Max. coefficient     DIISMaxC        ....  10.000
 Newton-Raphson         CNVNR           .... off
 SOSCF                  CNVSOSCF        .... off
 Level Shifting         CNVShift        .... on
   Level shift para.    LevelShift      ....    0.2500
   Turn off err/grad.   ShiftErr        ....    0.0010
 Zerner damping         CNVZerner       .... off
 Static damping         CNVDamp         .... on
   Fraction old density DampFac         ....    0.7000
   Max. Damping (<1)    DampMax         ....    0.9800
   Min. Damping (>=0)   DampMin         ....    0.0000
   Turn off err/grad.   DampErr         ....    0.1000
 Fernandez-Rico         CNVRico         .... off

SCF Procedure:
 Maximum # iterations   MaxIter         ....   500
 SCF integral mode      SCFMode         .... Direct
   Integral package                     .... LIBINT
 Reset frequency        DirectResetFreq ....    20
 Integral Threshold     Thresh          ....  2.500e-11 Eh
 Primitive CutOff       TCut            ....  2.500e-12 Eh

Convergence Tolerance:
 Convergence Check Mode ConvCheckMode   .... Total+1el-Energy
 Convergence forced     ConvForced      .... 0
 Energy Change          TolE            ....  1.000e-08 Eh
 1-El. energy change                    ....  1.000e-05 Eh
 DIIS Error             TolErr          ....  5.000e-07


Diagonalization of the overlap matrix:
Smallest eigenvalue                        ... 5.669e-04
Time for diagonalization                   ...    0.002 sec
Threshold for overlap eigenvalues          ... 1.000e-08
Number of eigenvalues below threshold      ... 0
Time for construction of square roots      ...    0.004 sec
Total time needed                          ...    0.006 sec

-------------------
DFT GRID GENERATION
-------------------

General Integration Accuracy     IntAcc      ...  4.340
Radial Grid Type                 RadialGrid  ... Gauss-Chebyshev
Angular Grid (max. acc.)         AngularGrid ... Lebedev-110
Angular grid pruning method      GridPruning ... 3 (G Style)
Weight generation scheme         WeightScheme... Becke
Basis function cutoff            BFCut       ...    1.0000e-11
Integration weight cutoff        WCut        ...    1.0000e-14
Grids for H and He will be reduced by one unit

# of grid points (after initial pruning)     ...  14700 (   0.0 sec)
# of grid points (after weights+screening)   ...  13800 (   0.0 sec)
nearest neighbour list constructed           ...    0.0 sec
Grid point re-assignment to atoms done       ...    0.0 sec
Grid point division into batches done        ...    0.0 sec
Reduced shell lists constructed in    0.0 sec

Total number of grid points                  ...    13800
Total number of batches                      ...      220
Average number of points per batch           ...       62
Average number of grid points per atom       ...     1150
Average number of shells per batch           ...    42.52 (88.58%)
Average number of basis functions per batch  ...    88.86 (92.56%)
Average number of large shells per batch     ...    38.45 (90.43%)
Average number of large basis fcns per batch ...    81.90 (92.16%)
Maximum spatial batch extension              ...   3.58,  3.80, 19.62 au
Average spatial batch extension              ...   0.24,  0.24,  0.50 au

Time for grid setup =    0.045 sec

------------------------------
INITIAL GUESS: MODEL POTENTIAL
------------------------------
Loading Hartree-Fock densities                     ... done
Calculating cut-offs                               ... done
Setting up the integral package                    ... done
Initializing the effective Hamiltonian             ... done
Starting the Coulomb interaction                   ... done (   0.0 sec)
Reading the grid                                   ... done
Mapping shells                                     ... done
Starting the XC term evaluation                    ... done (   0.0 sec)
  promolecular density results
     # of electrons  =     42.002365905
     EX              =    -32.579223465
     EC              =     -1.488217671
     EX+EC           =    -34.067441136
Transforming the Hamiltonian                       ... done (   0.0 sec)
Diagonalizing the Hamiltonian                      ... done (   0.0 sec)
Back transforming the eigenvectors                 ... done (   0.0 sec)
Now organizing SCF variables                       ... done
                      ------------------
                      INITIAL GUESS DONE (   0.2 sec)
                      ------------------
--------------
SCF ITERATIONS
--------------
               ***  Starting incremental Fock matrix formation  ***

                         ----------------------------
                         !        ITERATION     0   !
                         ----------------------------
   Total Energy        :    -231.956217969948 Eh
   Energy Change       :    -231.956217969948 Eh
   MAX-DP              :       0.031014094261
   RMS-DP              :       0.001413608326
   Actual Damping      :       0.7000
   Actual Level Shift  :       0.2500 Eh
   Int. Num. El.       :    42.00240827 (UP=   22.00164016 DN=   20.00076811)
   Exchange            :   -33.74242378
   Correlation         :    -1.50150255


                         ----------------------------
                         !        ITERATION     1   !
                         ----------------------------
   Total Energy        :    -232.011198210346 Eh
   Energy Change       :      -0.054980240398 Eh
   MAX-DP              :       0.021817135851
   RMS-DP              :       0.001076222206
   Actual Damping      :       0.7000
   Actual Level Shift  :       0.2500 Eh
   Int. Num. El.       :    42.00322673 (UP=   22.00221911 DN=   20.00100761)
   Exchange            :   -33.53838911
   Correlation         :    -1.49547992

                               ***Turning on DIIS***

                         ----------------------------
                         !        ITERATION     2   !
                         ----------------------------
   Total Energy        :    -232.033047935630 Eh
   Energy Change       :      -0.021849725283 Eh
   MAX-DP              :       0.032912411712
   RMS-DP              :       0.001804897522
   Actual Damping      :       0.0000
   Actual Level Shift  :       0.2500 Eh
   Int. Num. El.       :    42.00380970 (UP=   22.00263265 DN=   20.00117704)
   Exchange            :   -33.39800890
   Correlation         :    -1.49137443
   DIIS-Error          :       0.021581075515


                         ----------------------------
                         !        ITERATION     3   !
                         ----------------------------
   Total Energy        :    -232.063808630974 Eh
   Energy Change       :      -0.030760695344 Eh
   MAX-DP              :       0.016176954664
   RMS-DP              :       0.000775581324
   Actual Damping      :       0.0000
   Actual Level Shift  :       0.2500 Eh
   Int. Num. El.       :    42.00474053 (UP=   22.00326671 DN=   20.00147383)
   Exchange            :   -33.19129411
   Correlation         :    -1.48610884
   DIIS-Error          :       0.038733176214
   DIIS coefficients:
      0.62102   0.37898


                         ----------------------------
                         !        ITERATION     4   !
                         ----------------------------
   Total Energy        :    -232.073674113986 Eh
   Energy Change       :      -0.009865483013 Eh
   MAX-DP              :       0.004881531990
   RMS-DP              :       0.000245157595
   Actual Damping      :       0.0000
   Actual Level Shift  :       0.2500 Eh
   Int. Num. El.       :    42.00439280 (UP=   22.00299782 DN=   20.00139498)
   Exchange            :   -33.28020014
   Correlation         :    -1.48894842
   DIIS-Error          :       0.007798674558
   DIIS coefficients:
      0.19998  -0.02505   0.82507


                         ----------------------------
                         !        ITERATION     5   !
                         ----------------------------
   Total Energy        :    -232.074277639696 Eh
   Energy Change       :      -0.000603525710 Eh
   MAX-DP              :       0.002042371966
   RMS-DP              :       0.000103416426
   Actual Damping      :       0.0000
   Actual Level Shift  :       0.2500 Eh
   Int. Num. El.       :    42.00428307 (UP=   22.00291245 DN=   20.00137062)
   Exchange            :   -33.30464656
   Correlation         :    -1.48947256
   DIIS-Error          :       0.001299618527
   DIIS coefficients:
      0.02341  -0.00754  -0.03740   1.02153


                         ----------------------------
                         !        ITERATION     6   !
                         ----------------------------
   Total Energy        :    -232.074368346972 Eh
   Energy Change       :      -0.000090707276 Eh
   MAX-DP              :       0.017536736028
   RMS-DP              :       0.000696975006
   Actual Damping      :       0.0000
   Actual Level Shift  :       0.0000 Eh
   Int. Num. El.       :    42.00427024 (UP=   22.00289664 DN=   20.00137359)
   Exchange            :   -33.30950644
   Correlation         :    -1.48949504
   DIIS-Error          :       0.000803232042
   DIIS coefficients:
      0.00390  -0.00120  -0.02307   0.14380   0.87656


                         ----------------------------
                         !        ITERATION     7   !
                         ----------------------------
   Total Energy        :    -232.074617310974 Eh
   Energy Change       :      -0.000248964002 Eh
   MAX-DP              :       0.000188961766
   RMS-DP              :       0.000006017260
   Actual Damping      :       0.0000
   Actual Level Shift  :       0.2500 Eh
   Int. Num. El.       :    42.00429974 (UP=   22.00290657 DN=   20.00139317)
   Exchange            :   -33.31192497
   Correlation         :    -1.48941963
   DIIS-Error          :       0.003459436537
   DIIS coefficients:
      0.05379  -0.00079  -0.02272   0.03867   0.93104


                         ----------------------------
                         !        ITERATION     8   !
                         ----------------------------
   Total Energy        :    -232.074629065919 Eh
   Energy Change       :      -0.000011754945 Eh
   MAX-DP              :       0.000120910574
   RMS-DP              :       0.000003426587
   Actual Damping      :       0.0000
   Actual Level Shift  :       0.2500 Eh
   Int. Num. El.       :    42.00430086 (UP=   22.00290657 DN=   20.00139428)
   Exchange            :   -33.31191011
   Correlation         :    -1.48941127
   DIIS-Error          :       0.003201348436
   DIIS coefficients:
     -0.01934   0.08189  -0.02424   0.02825   0.93345


                         ----------------------------
                         !        ITERATION     9   !
                         ----------------------------
   Total Energy        :    -232.074634850666 Eh
   Energy Change       :      -0.000005784747 Eh
   MAX-DP              :       0.000143601750
   RMS-DP              :       0.000004534753
   Actual Damping      :       0.0000
   Actual Level Shift  :       0.2500 Eh
   Int. Num. El.       :    42.00430156 (UP=   22.00290654 DN=   20.00139502)
   Exchange            :   -33.31193440
   Correlation         :    -1.48940854
   DIIS-Error          :       0.003077109485
   DIIS coefficients:
     -0.01860  -0.00031   0.10625  -0.09955   1.01221


                         ----------------------------
                         !        ITERATION    10   !
                         ----------------------------
   Total Energy        :    -232.074641517495 Eh
   Energy Change       :      -0.000006666829 Eh
   MAX-DP              :       0.000075347861
   RMS-DP              :       0.000003279307
   Actual Damping      :       0.0000
   Actual Level Shift  :       0.2500 Eh
   Int. Num. El.       :    42.00430153 (UP=   22.00290586 DN=   20.00139567)
   Exchange            :   -33.31207680
   Correlation         :    -1.48940782
   DIIS-Error          :       0.002984212256
   DIIS coefficients:
     -0.05861  -0.04351  -0.04113   0.23144   0.91180


                         ----------------------------
                         !        ITERATION    11   !
                         ----------------------------
   Total Energy        :    -232.074644326090 Eh
   Energy Change       :      -0.000002808595 Eh
   MAX-DP              :       0.002544259809
   RMS-DP              :       0.000078637909
   Actual Damping      :       0.0000
   Actual Level Shift  :       0.2500 Eh
   Int. Num. El.       :    42.00430106 (UP=   22.00290526 DN=   20.00139580)
   Exchange            :   -33.31234580
   Correlation         :    -1.48941589
   DIIS-Error          :       0.002895474428
   DIIS coefficients:
     -1.43647  -0.72117  -0.38479  -0.05025   3.59268


                         ----------------------------
                         !        ITERATION    12   !
                         ----------------------------
   Total Energy        :    -232.074719612554 Eh
   Energy Change       :      -0.000075286464 Eh
   MAX-DP              :       0.001320978394
   RMS-DP              :       0.000040105617
   Actual Damping      :       0.0000
   Actual Level Shift  :       0.2500 Eh
   Int. Num. El.       :    42.00432421 (UP=   22.00291271 DN=   20.00141150)
   Exchange            :   -33.31094413
   Correlation         :    -1.48930300
   DIIS-Error          :       0.001023141622
   DIIS coefficients:
      0.72015   0.01080   0.02151   0.09819   0.14935


                         ----------------------------
                         !        ITERATION    13   !
                         ----------------------------
   Total Energy        :    -232.074751310538 Eh
   Energy Change       :      -0.000031697984 Eh
   MAX-DP              :       0.007169996051
   RMS-DP              :       0.000362383534
   Actual Damping      :       0.0000
   Actual Level Shift  :       0.0000 Eh
   Int. Num. El.       :    42.00431898 (UP=   22.00290477 DN=   20.00141421)
   Exchange            :   -33.31265707
   Correlation         :    -1.48932667
   DIIS-Error          :       0.000785888903
   DIIS coefficients:
      0.12385   0.74187   0.06290   0.05267   0.01871


                         ----------------------------
                         !        ITERATION    14   !
                         ----------------------------
   Total Energy        :    -232.074914553918 Eh
   Energy Change       :      -0.000163243379 Eh
   MAX-DP              :       0.000194846147
   RMS-DP              :       0.000006418429
   Actual Damping      :       0.0000
   Actual Level Shift  :       0.2500 Eh
   Int. Num. El.       :    42.00435028 (UP=   22.00290238 DN=   20.00144790)
   Exchange            :   -33.31258335
   Correlation         :    -1.48925062
   DIIS-Error          :       0.002150320544
   DIIS coefficients:
      0.21737   0.73986  -0.07789   0.06807   0.05259


                         ----------------------------
                         !        ITERATION    15   !
                         ----------------------------
   Total Energy        :    -232.074905978606 Eh
   Energy Change       :       0.000008575311 Eh
   MAX-DP              :       0.000080027758
   RMS-DP              :       0.000002783831
   Actual Damping      :       0.0000
   Actual Level Shift  :       0.2500 Eh
   Int. Num. El.       :    42.00435053 (UP=   22.00290264 DN=   20.00144789)
   Exchange            :   -33.31263963
   Correlation         :    -1.48925566
   DIIS-Error          :       0.002309003469
   DIIS coefficients:
      0.21402   0.74419  -0.03113  -0.04443   0.11735


                         ----------------------------
                         !        ITERATION    16   !
                         ----------------------------
   Total Energy        :    -232.074903444105 Eh
   Energy Change       :       0.000002534501 Eh
   MAX-DP              :       0.000117423008
   RMS-DP              :       0.000003873525
   Actual Damping      :       0.0000
   Actual Level Shift  :       0.2500 Eh
   Int. Num. El.       :    42.00435069 (UP=   22.00290282 DN=   20.00144787)
   Exchange            :   -33.31263848
   Correlation         :    -1.48925682
   DIIS-Error          :       0.002351319357
   DIIS coefficients:
      0.10248   1.00548   0.03498  -0.06536  -0.07758


                         ----------------------------
                         !        ITERATION    17   !
                         ----------------------------
   Total Energy        :    -232.074908375018 Eh
   Energy Change       :      -0.000004930913 Eh
   MAX-DP              :       0.000095227778
   RMS-DP              :       0.000003627328
   Actual Damping      :       0.0000
   Actual Level Shift  :       0.2500 Eh
   Int. Num. El.       :    42.00435041 (UP=   22.00290270 DN=   20.00144771)
   Exchange            :   -33.31251852
   Correlation         :    -1.48924918
   DIIS-Error          :       0.002151298159
   DIIS coefficients:
      0.02575   1.08473   0.05967  -0.07829  -0.09187


                         ----------------------------
                         !        ITERATION    18   !
                         ----------------------------
   Total Energy        :    -232.074912345516 Eh
   Energy Change       :      -0.000003970499 Eh
   MAX-DP              :       0.003375340636
   RMS-DP              :       0.000093863414
   Actual Damping      :       0.0000
   Actual Level Shift  :       0.2500 Eh
   Int. Num. El.       :    42.00435070 (UP=   22.00290286 DN=   20.00144785)
   Exchange            :   -33.31237036
   Correlation         :    -1.48924067
   DIIS-Error          :       0.002079139011
   DIIS coefficients:
     -0.67678  -0.25494   4.25622  -1.07726  -1.24724


                         ----------------------------
                         !        ITERATION    19   !
                         ----------------------------
   Total Energy        :    -232.074963880662 Eh
   Energy Change       :      -0.000051535145 Eh
   MAX-DP              :       0.001075317310
   RMS-DP              :       0.000040336364
   Actual Damping      :       0.0000
   Actual Level Shift  :       0.2500 Eh
   Int. Num. El.       :    42.00433340 (UP=   22.00288993 DN=   20.00144347)
   Exchange            :   -33.31327264
   Correlation         :    -1.48923267
   DIIS-Error          :       0.001528346070
   DIIS coefficients:
      0.01613   0.05218   0.64663   0.14982   0.13523

               *** Restarting incremental Fock matrix formation ***
                                   *** Resetting DIIS ***

                         ----------------------------
                         !        ITERATION    20   !
                         ----------------------------
   Total Energy        :    -232.074990759486 Eh
   Energy Change       :      -0.000026878824 Eh
   MAX-DP              :       0.007745520346
   RMS-DP              :       0.000347300466
   Actual Damping      :       0.0000
   Actual Level Shift  :       0.0000 Eh
   Int. Num. El.       :    42.00433931 (UP=   22.00289070 DN=   20.00144861)
   Exchange            :   -33.31320895
   Correlation         :    -1.48921011
   DIIS-Error          :       0.000707569273


                         ----------------------------
                         !        ITERATION    21   !
                         ----------------------------
   Total Energy        :    -232.075099677597 Eh
   Energy Change       :      -0.000108918111 Eh
   MAX-DP              :       0.000358084463
   RMS-DP              :       0.000011599650
   Actual Damping      :       0.0000
   Actual Level Shift  :       0.2500 Eh
   Int. Num. El.       :    42.00434991 (UP=   22.00288062 DN=   20.00146929)
   Exchange            :   -33.31358436
   Correlation         :    -1.48916817
   DIIS-Error          :       0.001132730216
   DIIS coefficients:
      0.80327   0.19673


                         ----------------------------
                         !        ITERATION    22   !
                         ----------------------------
   Total Energy        :    -232.075107953584 Eh
   Energy Change       :      -0.000008275987 Eh
   MAX-DP              :       0.001563534790
   RMS-DP              :       0.000063419823
   Actual Damping      :       0.0000
   Actual Level Shift  :       0.0000 Eh
   Int. Num. El.       :    42.00434906 (UP=   22.00287992 DN=   20.00146913)
   Exchange            :   -33.31361035
   Correlation         :    -1.48916460
   DIIS-Error          :       0.000829798789
   DIIS coefficients:
      0.73883   0.01080   0.25037


                         ----------------------------
                         !        ITERATION    23   !
                         ----------------------------
   Total Energy        :    -232.075123497608 Eh
   Energy Change       :      -0.000015544024 Eh
   MAX-DP              :       0.000821778019
   RMS-DP              :       0.000036662591
   Actual Damping      :       0.0000
   Actual Level Shift  :       0.0000 Eh
   Int. Num. El.       :    42.00434705 (UP=   22.00287668 DN=   20.00147037)
   Exchange            :   -33.31366500
   Correlation         :    -1.48915800
   DIIS-Error          :       0.000824690534
   DIIS coefficients:
      0.86672   0.16908   0.33506  -0.37087


                         ----------------------------
                         !        ITERATION    24   !
                         ----------------------------
   Total Energy        :    -232.075109557650 Eh
   Energy Change       :       0.000013939958 Eh
   MAX-DP              :       0.000679960411
   RMS-DP              :       0.000030021858
   Actual Damping      :       0.0000
   Actual Level Shift  :       0.0000 Eh
   Int. Num. El.       :    42.00434505 (UP=   22.00287813 DN=   20.00146692)
   Exchange            :   -33.31360791
   Correlation         :    -1.48916502
   DIIS-Error          :       0.000868211708
   DIIS coefficients:
      0.83080   0.06749   0.20815   0.25349  -0.35994


                         ----------------------------
                         !        ITERATION    25   !
                         ----------------------------
   Total Energy        :    -232.075118938229 Eh
   Energy Change       :      -0.000009380580 Eh
   MAX-DP              :       0.005222371918
   RMS-DP              :       0.000253974719
   Actual Damping      :       0.0000
   Actual Level Shift  :       0.0000 Eh
   Int. Num. El.       :    42.00434472 (UP=   22.00287632 DN=   20.00146840)
   Exchange            :   -33.31364804
   Correlation         :    -1.48916037
   DIIS-Error          :       0.000842642125
   DIIS coefficients:
     -0.40296  -1.03432   0.08642   3.13218  -0.78132


                         ----------------------------
                         !        ITERATION    26   !
                         ----------------------------
   Total Energy        :    -232.075191258863 Eh
   Energy Change       :      -0.000072320633 Eh
   MAX-DP              :       0.006025388320
   RMS-DP              :       0.000268934851
   Actual Damping      :       0.0000
   Actual Level Shift  :       0.0000 Eh
   Int. Num. El.       :    42.00434716 (UP=   22.00286200 DN=   20.00148515)
   Exchange            :   -33.31403951
   Correlation         :    -1.48911382
   DIIS-Error          :       0.000562756098
   DIIS coefficients:
      0.43658   1.60962  -0.95151  -0.36366   0.26897


                         ----------------------------
                         !        ITERATION    27   !
                         ----------------------------
   Total Energy        :    -232.075231817757 Eh
   Energy Change       :      -0.000040558894 Eh
   MAX-DP              :       0.001614358891
   RMS-DP              :       0.000082012186
   Actual Damping      :       0.0000
   Actual Level Shift  :       0.0000 Eh
   Int. Num. El.       :    42.00433935 (UP=   22.00284285 DN=   20.00149650)
   Exchange            :   -33.31432617
   Correlation         :    -1.48907646
   DIIS-Error          :       0.000306231430
   DIIS coefficients:
      0.13945   0.44883   0.85632  -0.36735  -0.07725


                         ----------------------------
                         !        ITERATION    28   !
                         ----------------------------
   Total Energy        :    -232.075238187400 Eh
   Energy Change       :      -0.000006369643 Eh
   MAX-DP              :       0.001639994271
   RMS-DP              :       0.000077516035
   Actual Damping      :       0.0000
   Actual Level Shift  :       0.0000 Eh
   Int. Num. El.       :    42.00433448 (UP=   22.00283446 DN=   20.00150002)
   Exchange            :   -33.31440609
   Correlation         :    -1.48907067
   DIIS-Error          :       0.000358367805
   DIIS coefficients:
     -0.12407   0.06552   0.65513   0.50809  -0.10467


                         ----------------------------
                         !        ITERATION    29   !
                         ----------------------------
   Total Energy        :    -232.075241609525 Eh
   Energy Change       :      -0.000003422125 Eh
   MAX-DP              :       0.001003350401
   RMS-DP              :       0.000047315546
   Actual Damping      :       0.0000
   Actual Level Shift  :       0.0000 Eh
   Int. Num. El.       :    42.00433314 (UP=   22.00282923 DN=   20.00150392)
   Exchange            :   -33.31444611
   Correlation         :    -1.48906366
   DIIS-Error          :       0.000055606446
   DIIS coefficients:
     -0.02956  -0.08144   0.03758  -0.02996   1.10339


                         ----------------------------
                         !        ITERATION    30   !
                         ----------------------------
   Total Energy        :    -232.075242030017 Eh
   Energy Change       :      -0.000000420492 Eh
   MAX-DP              :       0.000227584833
   RMS-DP              :       0.000010245801
   Actual Damping      :       0.0000
   Actual Level Shift  :       0.0000 Eh
   Int. Num. El.       :    42.00433095 (UP=   22.00282525 DN=   20.00150570)
   Exchange            :   -33.31442787
   Correlation         :    -1.48906521
   DIIS-Error          :       0.000015271057
   DIIS coefficients:
      0.87435   0.00996   0.01793  -0.02415   0.12190


                         ----------------------------
                         !        ITERATION    31   !
                         ----------------------------
   Total Energy        :    -232.075242072283 Eh
   Energy Change       :      -0.000000042266 Eh
   MAX-DP              :       0.000055944010
   RMS-DP              :       0.000002421256
   Actual Damping      :       0.0000
   Actual Level Shift  :       0.0000 Eh
   Int. Num. El.       :    42.00433158 (UP=   22.00282631 DN=   20.00150527)
   Exchange            :   -33.31439588
   Correlation         :    -1.48906947
   DIIS-Error          :       0.000009495049
   DIIS coefficients:
      0.37540   0.58177   0.00348  -0.00778   0.04713

                 **** Energy Check signals convergence ****

               *****************************************************
               *                     SUCCESS                       *
               *           SCF CONVERGED AFTER  32 CYCLES          *
               *****************************************************

Setting up the final grid:

General Integration Accuracy     IntAcc      ...  4.670
Radial Grid Type                 RadialGrid  ... Gauss-Chebyshev
Angular Grid (max. acc.)         AngularGrid ... Lebedev-302
Angular grid pruning method      GridPruning ... 3 (G Style)
Weight generation scheme         WeightScheme... Becke
Basis function cutoff            BFCut       ...    1.0000e-11
Integration weight cutoff        WCut        ...    1.0000e-14
Grids for H and He will be reduced by one unit

# of grid points (after initial pruning)     ...  57636 (   0.0 sec)
# of grid points (after weights+screening)   ...  53466 (   0.0 sec)
nearest neighbour list constructed           ...    0.0 sec
Grid point re-assignment to atoms done       ...    0.0 sec
Grid point division into batches done        ...    0.2 sec
Reduced shell lists constructed in    0.3 sec

Total number of grid points                  ...    53466
Total number of batches                      ...      844
Average number of points per batch           ...       63
Average number of grid points per atom       ...     4456
Average number of shells per batch           ...    41.89 (87.27%)
Average number of basis functions per batch  ...    87.98 (91.65%)
Average number of large shells per batch     ...    36.57 (87.30%)
Average number of large basis fcns per batch ...    77.34 (87.90%)
Maximum spatial batch extension              ...   3.76,  3.72, 17.18 au
Average spatial batch extension              ...   0.17,  0.17,  0.24 au

Final grid set up in    0.3 sec
Final integration                            ... done (   0.1 sec)
Change in XC energy                          ...    -0.000401573
Integrated number of electrons               ...    41.999970161
Previous integrated no of electrons          ...    42.004331489

----------------
TOTAL SCF ENERGY
----------------

Total Energy       :         -232.07564365 Eh           -6315.09932 eV

Components:
Nuclear Repulsion  :          202.00104978 Eh            5496.72801 eV
Electronic Energy  :         -434.07669343 Eh          -11811.82733 eV
One Electron Energy:         -711.27735026 Eh          -19354.84068 eV
Two Electron Energy:          277.20065682 Eh            7543.01335 eV

Virial components:
Potential Energy   :         -462.83419273 Eh          -12594.35867 eV
Kinetic Energy     :          230.75854908 Eh            6279.25935 eV
Virial Ratio       :            2.00570767


DFT components:
N(Alpha)           :       21.999997203619 electrons
N(Beta)            :       19.999972957511 electrons
N(Total)           :       41.999970161130 electrons
E(X)               :      -33.314571772757 Eh       
E(C)               :       -1.489290677301 Eh       
E(XC)              :      -34.803862450058 Eh       
DFET-embed. en.    :        0.000000000000 Eh       

---------------
SCF CONVERGENCE
---------------

  Last Energy change         ...   -3.0537e-09  Tolerance :   1.0000e-08
  Last MAX-Density change    ...    1.7095e-05  Tolerance :   1.0000e-07
  Last RMS-Density change    ...    5.1037e-07  Tolerance :   5.0000e-09
  Last DIIS Error            ...    1.1344e-05  Tolerance :   5.0000e-07

             **** THE GBW FILE WAS UPDATED (benzene_0_3_bp86_6-31gpol.opt.gbw) ****
             **** DENSITY FILE WAS UPDATED (benzene_0_3_bp86_6-31gpol.opt.scfp) ****
             **** ENERGY FILE WAS UPDATED (benzene_0_3_bp86_6-31gpol.opt.en.tmp) ****
----------------------
UHF SPIN CONTAMINATION
----------------------

Warning: in a DFT calculation there is little theoretical justification to 
         calculate <S**2> as in Hartree-Fock theory. We will do it anyways
         but you should keep in mind that the values have only limited relevance

Expectation value of <S**2>     :     2.031269
Ideal value S*(S+1) for S=1.0   :     2.000000
Deviation                       :     0.031269

             **** THE GBW FILE WAS UPDATED (benzene_0_3_bp86_6-31gpol.opt.gbw) ****
             **** DENSITY FILE WAS UPDATED (benzene_0_3_bp86_6-31gpol.opt.scfp) ****
----------------
ORBITAL ENERGIES
----------------
                 SPIN UP ORBITALS
  NO   OCC          E(Eh)            E(eV) 
   0   1.0000      -9.912673      -269.7375 
   1   1.0000      -9.912657      -269.7371 
   2   1.0000      -9.912417      -269.7306 
   3   1.0000      -9.912389      -269.7298 
   4   1.0000      -9.909564      -269.6529 
   5   1.0000      -9.909549      -269.6525 
   6   1.0000      -0.779735       -21.2177 
   7   1.0000      -0.686854       -18.6902 
   8   1.0000      -0.670205       -18.2372 
   9   1.0000      -0.544525       -14.8173 
  10   1.0000      -0.543351       -14.7853 
  11   1.0000      -0.468964       -12.7612 
  12   1.0000      -0.411636       -11.2012 
  13   1.0000      -0.394810       -10.7433 
  14   1.0000      -0.376485       -10.2447 
  15   1.0000      -0.369999       -10.0682 
  16   1.0000      -0.340377        -9.2621 
  17   1.0000      -0.302030        -8.2187 
  18   1.0000      -0.298764        -8.1298 
  19   1.0000      -0.254103        -6.9145 
  20   1.0000      -0.227676        -6.1954 
  21   1.0000      -0.061981        -1.6866 
  22   0.0000      -0.036794        -1.0012 
  23   0.0000       0.059988         1.6323 
  24   0.0000       0.093958         2.5567 
  25   0.0000       0.112235         3.0541 
  26   0.0000       0.117677         3.2022 
  27   0.0000       0.145129         3.9492 
  28   0.0000       0.150753         4.1022 
  29   0.0000       0.158142         4.3033 
  30   0.0000       0.254792         6.9333 
  31   0.0000       0.257423         7.0048 
  32   0.0000       0.270173         7.3518 
  33   0.0000       0.272004         7.4016 
  34   0.0000       0.434245        11.8164 
  35   0.0000       0.466443        12.6926 
  36   0.0000       0.478150        13.0111 
  37   0.0000       0.500583        13.6216 
  38   0.0000       0.503953        13.7133 
  39   0.0000       0.533289        14.5115 
  40   0.0000       0.540747        14.7145 
  41   0.0000       0.543686        14.7944 
  42   0.0000       0.550120        14.9695 
  43   0.0000       0.551949        15.0193 
  44   0.0000       0.573354        15.6018 
  45   0.0000       0.579606        15.7719 
  46   0.0000       0.591947        16.1077 
  47   0.0000       0.615539        16.7497 
  48   0.0000       0.680616        18.5205 
  49   0.0000       0.780054        21.2263 
  50   0.0000       0.781406        21.2631 
  51   0.0000       0.784566        21.3491 
  52   0.0000       0.811284        22.0762 
  53   0.0000       0.815016        22.1777 
  54   0.0000       0.882962        24.0266 
  55   0.0000       0.884707        24.0741 
  56   0.0000       0.884808        24.0768 
  57   0.0000       0.897524        24.4229 
  58   0.0000       1.021315        27.7914 
  59   0.0000       1.035004        28.1639 
  60   0.0000       1.073719        29.2174 
  61   0.0000       1.079377        29.3713 
  62   0.0000       1.135139        30.8887 
  63   0.0000       1.181450        32.1489 
  64   0.0000       1.316401        35.8211 
  65   0.0000       1.363270        37.0965 
  66   0.0000       1.366127        37.1742 
  67   0.0000       1.394536        37.9473 
  68   0.0000       1.404128        38.2083 
  69   0.0000       1.419870        38.6366 
  70   0.0000       1.438584        39.1459 
  71   0.0000       1.666695        45.3531 
  72   0.0000       1.706110        46.4256 
  73   0.0000       1.769326        48.1458 
  74   0.0000       1.823984        49.6331 
  75   0.0000       1.871147        50.9165 
  76   0.0000       1.881519        51.1987 
  77   0.0000       1.967856        53.5481 
  78   0.0000       1.969648        53.5968 
  79   0.0000       2.040972        55.5377 
  80   0.0000       2.044689        55.6388 
  81   0.0000       2.057581        55.9896 
  82   0.0000       2.063629        56.1542 
  83   0.0000       2.193079        59.6767 
  84   0.0000       2.211253        60.1712 
  85   0.0000       2.215624        60.2902 
  86   0.0000       2.435976        66.2863 
  87   0.0000       2.452872        66.7460 
  88   0.0000       2.538126        69.0659 
  89   0.0000       2.592775        70.5530 
  90   0.0000       2.598794        70.7168 
  91   0.0000       2.623807        71.3974 
  92   0.0000       2.629247        71.5454 
  93   0.0000       2.660529        72.3967 
  94   0.0000       2.917854        79.3989 
  95   0.0000       3.287908        89.4685 

                 SPIN DOWN ORBITALS
  NO   OCC          E(Eh)            E(eV) 
   0   1.0000      -9.911988      -269.7189 
   1   1.0000      -9.911972      -269.7185 
   2   1.0000      -9.904218      -269.5075 
   3   1.0000      -9.904198      -269.5069 
   4   1.0000      -9.903984      -269.5011 
   5   1.0000      -9.903966      -269.5006 
   6   1.0000      -0.764375       -20.7997 
   7   1.0000      -0.663961       -18.0673 
   8   1.0000      -0.662029       -18.0147 
   9   1.0000      -0.537701       -14.6316 
  10   1.0000      -0.525958       -14.3121 
  11   1.0000      -0.463940       -12.6245 
  12   1.0000      -0.403354       -10.9758 
  13   1.0000      -0.386363       -10.5135 
  14   1.0000      -0.368640       -10.0312 
  15   1.0000      -0.368573       -10.0294 
  16   1.0000      -0.303919        -8.2700 
  17   1.0000      -0.296421        -8.0660 
  18   1.0000      -0.294446        -8.0123 
  19   1.0000      -0.213487        -5.8093 
  20   0.0000      -0.190690        -5.1889 
  21   0.0000      -0.021537        -0.5860 
  22   0.0000       0.003560         0.0969 
  23   0.0000       0.063399         1.7252 
  24   0.0000       0.116913         3.1814 
  25   0.0000       0.118646         3.2285 
  26   0.0000       0.137353         3.7376 
  27   0.0000       0.154710         4.2099 
  28   0.0000       0.158390         4.3100 
  29   0.0000       0.165237         4.4963 
  30   0.0000       0.261654         7.1200 
  31   0.0000       0.266813         7.2604 
  32   0.0000       0.278477         7.5778 
  33   0.0000       0.279792         7.6135 
  34   0.0000       0.441144        12.0041 
  35   0.0000       0.495481        13.4827 
  36   0.0000       0.500963        13.6319 
  37   0.0000       0.504636        13.7318 
  38   0.0000       0.511495        13.9185 
  39   0.0000       0.554661        15.0931 
  40   0.0000       0.558644        15.2015 
  41   0.0000       0.562053        15.2942 
  42   0.0000       0.562365        15.3027 
  43   0.0000       0.583319        15.8729 
  44   0.0000       0.588151        16.0044 
  45   0.0000       0.592177        16.1140 
  46   0.0000       0.628472        17.1016 
  47   0.0000       0.642384        17.4802 
  48   0.0000       0.709556        19.3080 
  49   0.0000       0.785418        21.3723 
  50   0.0000       0.785873        21.3847 
  51   0.0000       0.789294        21.4778 
  52   0.0000       0.817148        22.2357 
  53   0.0000       0.820033        22.3142 
  54   0.0000       0.891006        24.2455 
  55   0.0000       0.892295        24.2806 
  56   0.0000       0.900927        24.5155 
  57   0.0000       0.902479        24.5577 
  58   0.0000       1.041634        28.3443 
  59   0.0000       1.050128        28.5754 
  60   0.0000       1.082853        29.4659 
  61   0.0000       1.088764        29.6268 
  62   0.0000       1.148449        31.2509 
  63   0.0000       1.207154        32.8483 
  64   0.0000       1.342882        36.5417 
  65   0.0000       1.376597        37.4591 
  66   0.0000       1.378025        37.4980 
  67   0.0000       1.424803        38.7709 
  68   0.0000       1.428253        38.8647 
  69   0.0000       1.449359        39.4391 
  70   0.0000       1.463203        39.8158 
  71   0.0000       1.706789        46.4441 
  72   0.0000       1.710559        46.5467 
  73   0.0000       1.773118        48.2490 
  74   0.0000       1.841702        50.1153 
  75   0.0000       1.884927        51.2915 
  76   0.0000       1.888652        51.3928 
  77   0.0000       1.978894        53.8484 
  78   0.0000       1.984265        53.9946 
  79   0.0000       2.074497        56.4499 
  80   0.0000       2.074562        56.4517 
  81   0.0000       2.086470        56.7757 
  82   0.0000       2.095661        57.0258 
  83   0.0000       2.227231        60.6060 
  84   0.0000       2.238927        60.9243 
  85   0.0000       2.248355        61.1809 
  86   0.0000       2.462799        67.0162 
  87   0.0000       2.479969        67.4834 
  88   0.0000       2.572499        70.0013 
  89   0.0000       2.601530        70.7912 
  90   0.0000       2.604477        70.8714 
  91   0.0000       2.631773        71.6142 
  92   0.0000       2.632872        71.6441 
  93   0.0000       2.693551        73.2953 
  94   0.0000       2.923749        79.5593 
  95   0.0000       3.296799        89.7105 

                    ********************************
                    * MULLIKEN POPULATION ANALYSIS *
                    ********************************

--------------------------------------------
MULLIKEN ATOMIC CHARGES AND SPIN POPULATIONS
--------------------------------------------
   0 C :   -0.148073    0.644190
   1 C :   -0.139309    0.633801
   2 C :   -0.128252   -0.213385
   3 C :   -0.148120    0.644219
   4 C :   -0.139381    0.633825
   5 C :   -0.128238   -0.213381
   6 H :    0.141448   -0.035154
   7 H :    0.135488   -0.034825
   8 H :    0.138740    0.005345
   9 H :    0.141459   -0.035155
  10 H :    0.135494   -0.034827
  11 H :    0.138742    0.005345
Sum of atomic charges         :   -0.0000000
Sum of atomic spin populations:    2.0000000

-----------------------------------------------------
MULLIKEN REDUCED ORBITAL CHARGES AND SPIN POPULATIONS
-----------------------------------------------------
CHARGE
  0 C s       :     3.197426  s :     3.197426
      pz      :     0.994336  p :     2.916020
      px      :     0.986523
      py      :     0.935161
      dz2     :     0.003389  d :     0.034627
      dxz     :     0.002703
      dyz     :     0.006037
      dx2y2   :     0.012418
      dxy     :     0.010080
  1 C s       :     3.199559  s :     3.199559
      pz      :     0.993588  p :     2.905149
      px      :     0.939482
      py      :     0.972079
      dz2     :     0.003379  d :     0.034601
      dxz     :     0.005362
      dyz     :     0.003391
      dx2y2   :     0.010735
      dxy     :     0.011734
  2 C s       :     3.198457  s :     3.198457
      pz      :     0.984644  p :     2.894754
      px      :     0.950000
      py      :     0.960110
      dz2     :     0.003105  d :     0.035041
      dxz     :     0.005604
      dyz     :     0.004288
      dx2y2   :     0.009120
      dxy     :     0.012923
  3 C s       :     3.197429  s :     3.197429
      pz      :     0.994374  p :     2.916064
      px      :     0.986521
      py      :     0.935169
      dz2     :     0.003389  d :     0.034627
      dxz     :     0.002703
      dyz     :     0.006037
      dx2y2   :     0.012419
      dxy     :     0.010080
  4 C s       :     3.199571  s :     3.199571
      pz      :     0.993627  p :     2.905207
      px      :     0.939488
      py      :     0.972092
      dz2     :     0.003379  d :     0.034602
      dxz     :     0.005363
      dyz     :     0.003392
      dx2y2   :     0.010736
      dxy     :     0.011734
  5 C s       :     3.198448  s :     3.198448
      pz      :     0.984646  p :     2.894749
      px      :     0.949986
      py      :     0.960116
      dz2     :     0.003105  d :     0.035041
      dxz     :     0.005604
      dyz     :     0.004288
      dx2y2   :     0.009121
      dxy     :     0.012923
  6 H s       :     0.858552  s :     0.858552
  7 H s       :     0.864512  s :     0.864512
  8 H s       :     0.861260  s :     0.861260
  9 H s       :     0.858541  s :     0.858541
 10 H s       :     0.864506  s :     0.864506
 11 H s       :     0.861258  s :     0.861258

SPIN
  0 C s       :     0.054269  s :     0.054269
      pz      :     0.560531  p :     0.588676
      px      :     0.017850
      py      :     0.010295
      dz2     :    -0.001709  d :     0.001246
      dxz     :     0.001097
      dyz     :     0.001839
      dx2y2   :     0.000091
      dxy     :    -0.000071
  1 C s       :     0.053266  s :     0.053266
      pz      :     0.552172  p :     0.579187
      px      :     0.014636
      py      :     0.012379
      dz2     :    -0.001683  d :     0.001348
      dxz     :     0.001182
      dyz     :     0.001834
      dx2y2   :     0.000086
      dxy     :    -0.000071
  2 C s       :    -0.037505  s :    -0.037505
      pz      :    -0.126942  p :    -0.184180
      px      :    -0.029908
      py      :    -0.027330
      dz2     :     0.000221  d :     0.008300
      dxz     :     0.004913
      dyz     :     0.003238
      dx2y2   :    -0.000052
      dxy     :    -0.000020
  3 C s       :     0.054272  s :     0.054272
      pz      :     0.560554  p :     0.588701
      px      :     0.017851
      py      :     0.010296
      dz2     :    -0.001709  d :     0.001247
      dxz     :     0.001097
      dyz     :     0.001839
      dx2y2   :     0.000091
      dxy     :    -0.000071
  4 C s       :     0.053267  s :     0.053267
      pz      :     0.552193  p :     0.579210
      px      :     0.014637
      py      :     0.012380
      dz2     :    -0.001684  d :     0.001348
      dxz     :     0.001182
      dyz     :     0.001835
      dx2y2   :     0.000086
      dxy     :    -0.000071
  5 C s       :    -0.037504  s :    -0.037504
      pz      :    -0.126940  p :    -0.184177
      px      :    -0.029909
      py      :    -0.027328
      dz2     :     0.000221  d :     0.008301
      dxz     :     0.004913
      dyz     :     0.003239
      dx2y2   :    -0.000052
      dxy     :    -0.000020
  6 H s       :    -0.035154  s :    -0.035154
  7 H s       :    -0.034825  s :    -0.034825
  8 H s       :     0.005345  s :     0.005345
  9 H s       :    -0.035155  s :    -0.035155
 10 H s       :    -0.034827  s :    -0.034827
 11 H s       :     0.005345  s :     0.005345

------------------------
MULLIKEN OVERLAP CHARGES
------------------------
B(  0-C ,  1-C ) :   0.6463 B(  0-C ,  2-C ) :  -0.0634 B(  0-C ,  4-C ) :  -0.1067 
B(  0-C ,  5-C ) :   1.0911 B(  0-C ,  6-H ) :   0.7149 B(  0-C ,  7-H ) :  -0.0921 
B(  0-C , 11-H ) :  -0.0839 B(  1-C ,  2-C ) :   1.1003 B(  1-C ,  3-C ) :  -0.1067 
B(  1-C ,  5-C ) :  -0.0599 B(  1-C ,  6-H ) :  -0.0908 B(  1-C ,  7-H ) :   0.7164 
B(  1-C ,  8-H ) :  -0.0839 B(  2-C ,  3-C ) :   1.0911 B(  2-C ,  4-C ) :  -0.0599 
B(  2-C ,  5-C ) :  -0.0812 B(  2-C ,  7-H ) :  -0.0796 B(  2-C ,  8-H ) :   0.7169 
B(  2-C ,  9-H ) :  -0.0778 B(  3-C ,  4-C ) :   0.6462 B(  3-C ,  5-C ) :  -0.0635 
B(  3-C ,  8-H ) :  -0.0839 B(  3-C ,  9-H ) :   0.7149 B(  3-C , 10-H ) :  -0.0921 
B(  4-C ,  5-C ) :   1.1003 B(  4-C ,  9-H ) :  -0.0908 B(  4-C , 10-H ) :   0.7164 
B(  4-C , 11-H ) :  -0.0839 B(  5-C ,  6-H ) :  -0.0778 B(  5-C , 10-H ) :  -0.0796 
B(  5-C , 11-H ) :   0.7169 


                     *******************************
                     * LOEWDIN POPULATION ANALYSIS *
                     *******************************

-------------------------------------------
LOEWDIN ATOMIC CHARGES AND SPIN POPULATIONS
-------------------------------------------
   0 C :   -0.136847    0.575038
   1 C :   -0.134602    0.566607
   2 C :   -0.133913   -0.108995
   3 C :   -0.136895    0.575065
   4 C :   -0.134648    0.566632
   5 C :   -0.133913   -0.108992
   6 H :    0.135375   -0.017555
   7 H :    0.133942   -0.017391
   8 H :    0.136087    0.002269
   9 H :    0.135381   -0.017556
  10 H :    0.133945   -0.017391
  11 H :    0.136089    0.002269

----------------------------------------------------
LOEWDIN REDUCED ORBITAL CHARGES AND SPIN POPULATIONS
----------------------------------------------------
CHARGE
  0 C s       :     2.926247  s :     2.926247
      pz      :     0.979928  p :     3.125093
      px      :     1.074131
      py      :     1.071035
      dz2     :     0.006012  d :     0.085507
      dxz     :     0.005743
      dyz     :     0.013806
      dx2y2   :     0.032458
      dxy     :     0.027489
  1 C s       :     2.926254  s :     2.926254
      pz      :     0.979501  p :     3.122676
      px      :     1.072312
      py      :     1.070863
      dz2     :     0.005998  d :     0.085672
      dxz     :     0.012030
      dyz     :     0.007582
      dx2y2   :     0.029537
      dxy     :     0.030525
  2 C s       :     2.925806  s :     2.925806
      pz      :     0.978274  p :     3.120376
      px      :     1.070648
      py      :     1.071454
      dz2     :     0.005683  d :     0.087731
      dxz     :     0.013342
      dyz     :     0.009794
      dx2y2   :     0.026175
      dxy     :     0.032737
  3 C s       :     2.926252  s :     2.926252
      pz      :     0.979963  p :     3.125136
      px      :     1.074138
      py      :     1.071035
      dz2     :     0.006012  d :     0.085508
      dxz     :     0.005743
      dyz     :     0.013806
      dx2y2   :     0.032459
      dxy     :     0.027487
  4 C s       :     2.926256  s :     2.926256
      pz      :     0.979537  p :     3.122718
      px      :     1.072312
      py      :     1.070869
      dz2     :     0.005999  d :     0.085674
      dxz     :     0.012030
      dyz     :     0.007583
      dx2y2   :     0.029538
      dxy     :     0.030524
  5 C s       :     2.925802  s :     2.925802
      pz      :     0.978276  p :     3.120379
      px      :     1.070638
      py      :     1.071465
      dz2     :     0.005683  d :     0.087732
      dxz     :     0.013342
      dyz     :     0.009794
      dx2y2   :     0.026176
      dxy     :     0.032736
  6 H s       :     0.864625  s :     0.864625
  7 H s       :     0.866058  s :     0.866058
  8 H s       :     0.863913  s :     0.863913
  9 H s       :     0.864619  s :     0.864619
 10 H s       :     0.866055  s :     0.866055
 11 H s       :     0.863911  s :     0.863911

SPIN
  0 C s       :     0.016926  s :     0.016926
      pz      :     0.537672  p :     0.552987
      px      :     0.009343
      py      :     0.005972
      dz2     :    -0.001619  d :     0.005125
      dxz     :     0.003272
      dyz     :     0.003916
      dx2y2   :    -0.000199
      dxy     :    -0.000244
  1 C s       :     0.016628  s :     0.016628
      pz      :     0.529711  p :     0.544606
      px      :     0.007436
      py      :     0.007458
      dz2     :    -0.001594  d :     0.005374
      dxz     :     0.002243
      dyz     :     0.005150
      dx2y2   :    -0.000243
      dxy     :    -0.000182
  2 C s       :    -0.008949  s :    -0.008949
      pz      :    -0.102747  p :    -0.122219
      px      :    -0.010471
      py      :    -0.009000
      dz2     :     0.000379  d :     0.022172
      dxz     :     0.012344
      dyz     :     0.008301
      dx2y2   :     0.000701
      dxy     :     0.000447
  3 C s       :     0.016927  s :     0.016927
      pz      :     0.537694  p :     0.553011
      px      :     0.009344
      py      :     0.005973
      dz2     :    -0.001619  d :     0.005127
      dxz     :     0.003272
      dyz     :     0.003917
      dx2y2   :    -0.000199
      dxy     :    -0.000244
  4 C s       :     0.016628  s :     0.016628
      pz      :     0.529732  p :     0.544628
      px      :     0.007437
      py      :     0.007460
      dz2     :    -0.001594  d :     0.005375
      dxz     :     0.002243
      dyz     :     0.005151
      dx2y2   :    -0.000243
      dxy     :    -0.000182
  5 C s       :    -0.008948  s :    -0.008948
      pz      :    -0.102745  p :    -0.122216
      px      :    -0.010472
      py      :    -0.008999
      dz2     :     0.000379  d :     0.022172
      dxz     :     0.012344
      dyz     :     0.008301
      dx2y2   :     0.000701
      dxy     :     0.000447
  6 H s       :    -0.017555  s :    -0.017555
  7 H s       :    -0.017391  s :    -0.017391
  8 H s       :     0.002269  s :     0.002269
  9 H s       :    -0.017556  s :    -0.017556
 10 H s       :    -0.017391  s :    -0.017391
 11 H s       :     0.002269  s :     0.002269

---------------------------------
LOEWDIN BOND ORDERS (THRESH 0.050000)
---------------------------------
B(  0-C ,  1-C ) :   1.1171 B(  0-C ,  2-C ) :   0.0659 B(  0-C ,  4-C ) :   0.0685 
B(  0-C ,  5-C ) :   1.4942 B(  0-C ,  6-H ) :   0.8990 B(  1-C ,  2-C ) :   1.5046 
B(  1-C ,  3-C ) :   0.0685 B(  1-C ,  5-C ) :   0.0657 B(  1-C ,  7-H ) :   0.8996 
B(  2-C ,  3-C ) :   1.4941 B(  2-C ,  4-C ) :   0.0657 B(  2-C ,  5-C ) :   0.1173 
B(  2-C ,  8-H ) :   0.9000 B(  3-C ,  4-C ) :   1.1171 B(  3-C ,  5-C ) :   0.0659 
B(  3-C ,  9-H ) :   0.8990 B(  4-C ,  5-C ) :   1.5046 B(  4-C , 10-H ) :   0.8996 
B(  5-C , 11-H ) :   0.9000 

------------------------------------------
LOEWDIN REDUCED ORBITAL POPULATIONS PER MO
-------------------------------------------
THRESHOLD FOR PRINTING IS 0.1%
SPIN UP
                      0         1         2         3         4         5   
                  -9.91267  -9.91266  -9.91242  -9.91239  -9.90956  -9.90955
                   1.00000   1.00000   1.00000   1.00000   1.00000   1.00000
                  --------  --------  --------  --------  --------  --------
 0 C  s               8.7      67.0       6.5      17.1       0.1       0.1
 1 C  s               2.4      21.2      22.5      53.2       0.1       0.1
 1 C  px              0.0       0.0       0.0       0.0       0.1       0.1
 2 C  s               0.1       0.1       0.1       0.0      52.9      46.2
 2 C  px              0.0       0.0       0.0       0.1       0.0       0.0
 2 C  py              0.1       0.0       0.0       0.0       0.0       0.0
 3 C  s              67.6       8.2      16.2       7.2       0.1       0.1
 4 C  s              20.5       2.9      53.9      21.9       0.1       0.1
 5 C  s               0.0       0.2       0.2       0.0      46.2      53.0
 5 C  py              0.0       0.1       0.0       0.0       0.0       0.0

                      6         7         8         9        10        11   
                  -0.77973  -0.68685  -0.67020  -0.54453  -0.54335  -0.46896
                   1.00000   1.00000   1.00000   1.00000   1.00000   1.00000
                  --------  --------  --------  --------  --------  --------
 0 C  s              13.1      15.2       5.1       2.0       7.9       0.5
 0 C  px              2.4       0.2       0.2       0.2       3.3      11.2
 0 C  py              0.0       2.3       6.5      12.1       2.4       0.2
 0 C  dxy             0.0       0.1       0.2       0.1       0.1       0.0
 1 C  s              13.1      15.0       5.4       2.3       7.6       0.5
 1 C  px              0.2       2.0       5.8      11.9       1.6       1.2
 1 C  py              2.3       0.6       0.8       0.1       4.4      10.2
 1 C  dx2y2           0.0       0.0       0.1       0.1       0.0       0.0
 2 C  s              11.5       0.0      19.4      10.7       0.0       0.7
 2 C  px              1.0       5.0       0.0       1.0       8.3       4.4
 2 C  py              1.6       3.3       0.1       1.3       5.6       6.8
 2 C  dz2             0.1       0.0       0.1       0.0       0.0       0.0
 2 C  dx2y2           0.0       0.2       0.0       0.0       0.2       0.0
 3 C  s              13.1      15.2       5.1       2.0       7.9       0.5
 3 C  px              2.4       0.2       0.2       0.2       3.3      11.2
 3 C  py              0.0       2.3       6.5      12.1       2.4       0.2
 3 C  dxy             0.0       0.1       0.2       0.1       0.1       0.0
 4 C  s              13.1      15.0       5.4       2.3       7.6       0.5
 4 C  px              0.2       2.0       5.8      11.9       1.6       1.2
 4 C  py              2.3       0.6       0.8       0.1       4.4      10.2
 4 C  dx2y2           0.0       0.0       0.1       0.1       0.0       0.0
 5 C  s              11.5       0.0      19.4      10.7       0.0       0.7
[...]
 4 C  py              0.3       0.9       2.5       0.6       0.7       0.4
 4 C  dz2            13.6       1.8       2.6       3.5       3.1       0.1
 4 C  dx2y2           0.1       4.0       0.3       1.7       9.8      10.8
 4 C  dxy             3.2       5.3       0.8       2.3       5.0       4.5
 5 C  s               1.5       0.5       6.4       2.8       0.0       4.5
 5 C  px              0.3       0.4       1.8       0.4       1.0       0.7
 5 C  py              0.5       0.6       2.7       0.5       0.6       1.1
 5 C  dz2             7.4       3.4       5.5       4.4       0.0       7.3
 5 C  dx2y2           0.0       0.5       0.0       0.7       0.0       0.0
 5 C  dxy             1.3       9.6       0.5      14.6       0.0       0.0
 6 H  s               0.1       3.0       1.0       2.5       4.6       0.3
 7 H  s               0.1       3.0       1.0       2.6       4.6       0.3
 8 H  s               0.1       3.9       4.4       4.3       0.0       0.4
 9 H  s               0.1       3.0       1.0       2.5       4.6       0.3
10 H  s               0.1       3.0       1.0       2.6       4.6       0.3
11 H  s               0.1       3.9       4.4       4.3       0.0       0.4

                     78        79        80        81        82        83   
                   1.95181   2.01573   2.04043   2.05248   2.09593   2.13362
                   0.00000   0.00000   0.00000   0.00000   0.00000   0.00000
                  --------  --------  --------  --------  --------  --------
 0 C  s               2.1       0.0       3.5       1.2       0.0       0.0
 0 C  pz              0.0       1.0       0.0       0.0       0.4       0.3
 0 C  px              1.2       0.0       1.8       0.5       0.0       0.0
 0 C  py              0.7       0.0       0.1       1.4       0.0       0.0
 0 C  dz2             1.6       0.0      14.5       3.1       0.0       0.0
 0 C  dxz             0.0      20.7       0.0       0.0       4.7       8.4
 0 C  dyz             0.0       0.9       0.0       0.0       7.8      16.2
 0 C  dx2y2           0.1       0.0       2.7       2.3       0.0       0.0
 0 C  dxy             7.0       0.0       0.1       0.2       0.0       0.0
 1 C  s               2.1       0.0       3.0       1.7       0.0       0.0
 1 C  pz              0.0       1.0       0.0       0.0       0.4       0.3
 1 C  px              1.0       0.0       0.3       1.6       0.0       0.0
 1 C  py              0.9       0.0       1.5       0.6       0.0       0.0
 1 C  dz2             1.7       0.0      12.7       4.7       0.0       0.0
 1 C  dxz             0.0       0.0       0.0       0.0      10.1      10.8
 1 C  dyz             0.0      21.3       0.0       0.0       2.6      13.6
 1 C  dx2y2           1.2       0.0       1.5       3.1       0.0       0.0
 1 C  dxy             7.0       0.0       0.7       0.1       0.0       0.0
 2 C  s               0.0       0.0       0.0       3.8       0.0       0.0
 2 C  pz              0.0       0.0       0.0       0.0       1.5       0.2
 2 C  px              0.9       0.0       1.1       1.0       0.0       0.0
 2 C  py              0.5       0.0       0.9       1.3       0.0       0.0
 2 C  dz2             0.0       0.0       0.1      17.3       0.0       0.0
 2 C  dxz             0.0       3.0       0.0       0.0       8.9       0.1
 2 C  dyz             0.0       2.1       0.0       0.0      13.5       0.1
 2 C  dx2y2          20.1       0.0       5.1       0.4       0.0       0.0
 2 C  dxy             0.9       0.0       0.4       5.4       0.0       0.0
 3 C  s               2.1       0.0       3.5       1.2       0.0       0.0
 3 C  pz              0.0       1.0       0.0       0.0       0.4       0.3
 3 C  px              1.2       0.0       1.8       0.5       0.0       0.0
 3 C  py              0.7       0.0       0.1       1.4       0.0       0.0
 3 C  dz2             1.6       0.0      14.5       3.1       0.0       0.0
 3 C  dxz             0.0      20.7       0.0       0.0       4.7       8.4
 3 C  dyz             0.0       0.9       0.0       0.0       7.8      16.2
 3 C  dx2y2           0.1       0.0       2.7       2.3       0.0       0.0
 3 C  dxy             7.0       0.0       0.1       0.2       0.0       0.0
 4 C  s               2.1       0.0       3.0       1.7       0.0       0.0
 4 C  pz              0.0       1.0       0.0       0.0       0.4       0.3
 4 C  px              1.0       0.0       0.3       1.6       0.0       0.0
 4 C  py              0.9       0.0       1.5       0.6       0.0       0.0
 4 C  dz2             1.7       0.0      12.7       4.7       0.0       0.0
 4 C  dxz             0.0       0.0       0.0       0.0      10.1      10.8
 4 C  dyz             0.0      21.3       0.0       0.0       2.6      13.6
 4 C  dx2y2           1.2       0.0       1.5       3.1       0.0       0.0
 4 C  dxy             7.0       0.0       0.7       0.1       0.0       0.0
 5 C  s               0.0       0.0       0.0       3.8       0.0       0.0
 5 C  pz              0.0       0.0       0.0       0.0       1.5       0.2
 5 C  px              0.9       0.0       1.1       1.0       0.0       0.0
 5 C  py              0.5       0.0       0.9       1.3       0.0       0.0
 5 C  dz2             0.0       0.0       0.1      17.3       0.0       0.0
 5 C  dxz             0.0       3.0       0.0       0.0       8.9       0.1
 5 C  dyz             0.0       2.1       0.0       0.0      13.5       0.1
 5 C  dx2y2          20.1       0.0       5.1       0.4       0.0       0.0
 5 C  dxy             0.9       0.0       0.4       5.4       0.0       0.0
 6 H  s               0.5       0.0       0.1       0.1       0.0       0.0
 7 H  s               0.5       0.0       0.1       0.1       0.0       0.0
 8 H  s               0.0       0.0       0.0       0.1       0.0       0.0
 9 H  s               0.5       0.0       0.1       0.1       0.0       0.0
10 H  s               0.5       0.0       0.1       0.1       0.0       0.0
11 H  s               0.0       0.0       0.0       0.1       0.0       0.0

                     84        85        86        87        88        89   
                   2.21560   2.26228   2.42892   2.47622   2.51218   2.52052
                   0.00000   0.00000   0.00000   0.00000   0.00000   0.00000
                  --------  --------  --------  --------  --------  --------
 0 C  s               0.0       0.0       3.2       1.4       0.0       1.9
 0 C  pz              0.6       0.4       0.0       0.0       0.0       0.0
 0 C  px              0.0       0.0       0.4       0.1       0.0       0.7
 0 C  py              0.0       0.0       0.1       0.4       0.0       0.2
 0 C  dz2             0.0       0.0      10.6       4.9       0.0       5.8
 0 C  dxz             9.0       0.8       0.0       0.0       0.1       0.0
 0 C  dyz             6.1       8.7       0.0       0.0      15.3       0.0
 0 C  dx2y2           0.0       0.0       7.5       0.1       0.0      13.7
 0 C  dxy             0.0       0.0       0.1       4.0       0.0       0.9
 1 C  s               0.0       0.0       3.1       1.5       0.0       1.9
 1 C  pz              0.6       0.4       0.0       0.0       0.0       0.0
 1 C  px              0.0       0.0       0.0       0.4       0.0       0.2
 1 C  py              0.0       0.0       0.5       0.1       0.0       0.7
 1 C  dz2             0.0       0.0      10.1       5.2       0.0       5.9
 1 C  dxz             8.6      10.3       0.0       0.0      14.3       0.0
 1 C  dyz             5.8       0.1       0.0       0.0       1.2       0.0
 1 C  dx2y2           0.0       0.0       7.1       0.2       0.0       8.8
 1 C  dxy             0.0       0.0       0.5       3.8       0.0       5.3
 2 C  s               0.0       0.0       0.0       5.5       0.0       0.0
 2 C  pz              1.4       0.0       0.0       0.0       0.0       0.0
 2 C  px              0.0       0.0       0.0       0.4       0.0       1.9
 2 C  py              0.0       0.0       0.0       0.6       0.0       1.2
 2 C  dz2             0.0       0.0       0.0      16.4       0.0       0.0
 2 C  dxz             6.7      18.1       0.0       0.0      11.5       0.0
 2 C  dyz            11.2      11.2       0.0       0.0       7.5       0.0
 2 C  dx2y2           0.0       0.0       2.9       0.1       0.0       0.0
 2 C  dxy             0.0       0.0       0.1       2.4       0.0       0.0
 3 C  s               0.0       0.0       3.2       1.4       0.0       1.9
 3 C  pz              0.6       0.4       0.0       0.0       0.0       0.0
 3 C  px              0.0       0.0       0.4       0.1       0.0       0.7
 3 C  py              0.0       0.0       0.1       0.4       0.0       0.2
 3 C  dz2             0.0       0.0      10.6       4.9       0.0       5.8
 3 C  dxz             9.0       0.8       0.0       0.0       0.1       0.0
 3 C  dyz             6.1       8.7       0.0       0.0      15.3       0.0
 3 C  dx2y2           0.0       0.0       7.5       0.1       0.0      13.7
 3 C  dxy             0.0       0.0       0.1       4.0       0.0       0.9
 4 C  s               0.0       0.0       3.1       1.5       0.0       1.9
 4 C  pz              0.6       0.4       0.0       0.0       0.0       0.0
 4 C  px              0.0       0.0       0.0       0.4       0.0       0.2
 4 C  py              0.0       0.0       0.5       0.1       0.0       0.7
 4 C  dz2             0.0       0.0      10.1       5.2       0.0       5.9
 4 C  dxz             8.6      10.3       0.0       0.0      14.3       0.0
 4 C  dyz             5.8       0.1       0.0       0.0       1.2       0.0
 4 C  dx2y2           0.0       0.0       7.1       0.2       0.0       8.8
 4 C  dxy             0.0       0.0       0.5       3.8       0.0       5.3
 5 C  s               0.0       0.0       0.0       5.5       0.0       0.0
 5 C  pz              1.4       0.0       0.0       0.0       0.0       0.0
 5 C  px              0.0       0.0       0.0       0.4       0.0       1.9
 5 C  py              0.0       0.0       0.0       0.6       0.0       1.2
 5 C  dz2             0.0       0.0       0.0      16.4       0.0       0.0
 5 C  dxz             6.7      18.1       0.0       0.0      11.5       0.0
 5 C  dyz            11.2      11.2       0.0       0.0       7.5       0.0
 5 C  dx2y2           0.0       0.0       2.9       0.1       0.0       0.0
 5 C  dxy             0.0       0.0       0.1       2.4       0.0       0.0
 6 H  s               0.0       0.0       1.9       0.5       0.0       0.5
 7 H  s               0.0       0.0       1.8       0.6       0.0       0.5
 8 H  s               0.0       0.0       0.0       1.6       0.0       0.0
 9 H  s               0.0       0.0       1.9       0.5       0.0       0.5
10 H  s               0.0       0.0       1.8       0.6       0.0       0.5
11 H  s               0.0       0.0       0.0       1.6       0.0       0.0

                     90        91        92        93        94        95   
                   2.56380   2.58973   2.63576   2.67700   2.89078   3.20386
                   0.00000   0.00000   0.00000   0.00000   0.00000   0.00000
                  --------  --------  --------  --------  --------  --------
 0 C  s               0.5       0.3       1.9       4.5       0.1       1.9
 0 C  px              0.4       0.0       0.6       0.3       0.0       0.2
 0 C  py              2.2       1.7       1.2       0.0       3.0       0.1
 0 C  dz2             0.3       0.4       1.4       7.9       0.0       1.6
 0 C  dx2y2           1.9       5.1       0.5       2.2       0.5      10.3
 0 C  dxy            17.7       0.9       5.2       0.4      12.1       1.4
 1 C  s               0.5       0.3       1.8       4.6       0.1       1.9
 1 C  px              1.7       1.7       1.6       0.1       2.8       0.1
 1 C  py              0.9       0.1       0.2       0.3       0.2       0.1
 1 C  dz2             0.3       0.5       1.3       8.0       0.0       1.6
 1 C  dx2y2           8.8       3.1       2.7       1.2       4.3       6.0
 1 C  dxy            10.3       3.4       3.5       1.4       8.3       5.8
 2 C  s               2.5       1.3       0.0       4.9       0.0       2.1
 2 C  px              0.4       0.2       2.4       0.2       2.1       0.1
 2 C  py              0.7       0.2       1.5       0.3       1.4       0.1
 2 C  dz2             0.8       2.7       0.0       8.1       0.0       1.6
 2 C  dx2y2           0.0       1.2      23.0       0.1      14.3       0.6
 2 C  dxy             0.0      25.0       1.1       3.3       0.7      12.9
 3 C  s               0.5       0.3       1.9       4.5       0.1       1.9
 3 C  px              0.4       0.0       0.6       0.3       0.0       0.2
 3 C  py              2.2       1.7       1.2       0.0       3.0       0.1
 3 C  dz2             0.3       0.4       1.4       7.9       0.0       1.6
 3 C  dx2y2           1.9       5.1       0.5       2.2       0.5      10.3
 3 C  dxy            17.7       0.9       5.2       0.4      12.1       1.4
 4 C  s               0.5       0.3       1.8       4.6       0.1       1.9
 4 C  px              1.7       1.7       1.6       0.1       2.8       0.1
 4 C  py              0.9       0.1       0.2       0.3       0.2       0.1
 4 C  dz2             0.3       0.5       1.3       8.0       0.0       1.6
 4 C  dx2y2           8.8       3.1       2.7       1.2       4.3       6.0
 4 C  dxy            10.3       3.4       3.5       1.4       8.3       5.8
 5 C  s               2.5       1.3       0.0       4.9       0.0       2.1
 5 C  px              0.4       0.2       2.4       0.2       2.1       0.1
 5 C  py              0.7       0.2       1.5       0.3       1.4       0.1
 5 C  dz2             0.8       2.7       0.0       8.1       0.0       1.6
 5 C  dx2y2           0.0       1.2      23.0       0.1      14.3       0.6
 5 C  dxy             0.0      25.0       1.1       3.3       0.7      12.9
 6 H  s               0.0       0.3       0.1       0.7       0.0       0.5
 7 H  s               0.0       0.4       0.1       0.7       0.0       0.5
 8 H  s               0.1       1.3       0.0       0.8       0.0       0.5
 9 H  s               0.0       0.3       0.1       0.7       0.0       0.5
10 H  s               0.0       0.4       0.1       0.7       0.0       0.5
11 H  s               0.1       1.3       0.0       0.8       0.0       0.5



                      *****************************
                      * MAYER POPULATION ANALYSIS *
                      *****************************

  NA   - Mulliken gross atomic population
  ZA   - Total nuclear charge
  QA   - Mulliken gross atomic charge
  VA   - Mayer's total valence
  BVA  - Mayer's bonded valence
  FA   - Mayer's free valence

  ATOM       NA         ZA         QA         VA         BVA        FA
  0 C      6.1581     6.0000    -0.1581     3.9000     3.5644     0.3356
  1 C      6.1485     6.0000    -0.1485     3.9018     3.5856     0.3162
  2 C      6.1158     6.0000    -0.1158     3.9505     3.9301     0.0203
  3 C      6.1581     6.0000    -0.1581     3.9000     3.5644     0.3356
  4 C      6.1485     6.0000    -0.1485     3.9018     3.5856     0.3162
  5 C      6.1158     6.0000    -0.1158     3.9505     3.9301     0.0203
  6 H      0.8564     1.0000     0.1436     0.9361     0.9349     0.0013
  7 H      0.8621     1.0000     0.1379     0.9378     0.9366     0.0012
  8 H      0.8592     1.0000     0.1408     0.9342     0.9341     0.0000
  9 H      0.8564     1.0000     0.1436     0.9361     0.9349     0.0013
 10 H      0.8621     1.0000     0.1379     0.9378     0.9366     0.0012
 11 H      0.8592     1.0000     0.1408     0.9342     0.9341     0.0000

  Mayer bond orders larger than 0.100000
B(  0-C ,  1-C ) :   0.9782 B(  0-C ,  4-C ) :   0.1765 B(  0-C ,  5-C ) :   1.4542 
B(  0-C ,  6-H ) :   0.9196 B(  1-C ,  2-C ) :   1.4762 B(  1-C ,  3-C ) :   0.1765 
B(  1-C ,  7-H ) :   0.9217 B(  2-C ,  3-C ) :   1.4542 B(  2-C ,  8-H ) :   0.9196 
B(  3-C ,  4-C ) :   0.9782 B(  3-C ,  9-H ) :   0.9196 B(  4-C ,  5-C ) :   1.4762 
B(  4-C , 10-H ) :   0.9217 B(  5-C , 11-H ) :   0.9196 

-------
TIMINGS
-------

Total SCF time: 0 days 0 hours 0 min 4 sec 

Total time                  ....       4.895 sec
Sum of individual times     ....       4.096 sec  ( 83.7%)

Fock matrix formation       ....       2.886 sec  ( 59.0%)
  Split-RI-J                ....       1.349 sec  ( 46.7% of F)
  XC integration            ....       0.633 sec  ( 21.9% of F)
    Basis function eval.    ....       0.082 sec  ( 13.0% of XC)
    Density eval.           ....       0.060 sec  (  9.4% of XC)
    XC-Functional eval.     ....       0.036 sec  (  5.7% of XC)
    XC-Potential eval.      ....       0.096 sec  ( 15.2% of XC)
Diagonalization             ....       0.191 sec  (  3.9%)
Density matrix formation    ....       0.044 sec  (  0.9%)
Population analysis         ....       0.062 sec  (  1.3%)
Initial guess               ....       0.192 sec  (  3.9%)
Orbital Transformation      ....       0.000 sec  (  0.0%)
Orbital Orthonormalization  ....       0.046 sec  (  0.9%)
DIIS solution               ....       0.025 sec  (  0.5%)
Grid generation             ....       0.695 sec  ( 14.2%)

-------------------------   --------------------
FINAL SINGLE POINT ENERGY      -232.094280512850
-------------------------   --------------------

                                *** OPTIMIZATION RUN DONE ***

                            ***************************************
                            *     ORCA property calculations      *
                            ***************************************

                                    ---------------------
                                    Active property flags
                                    ---------------------
   (+) Dipole Moment


------------------------------------------------------------------------------
                       ORCA ELECTRIC PROPERTIES CALCULATION
------------------------------------------------------------------------------

Dipole Moment Calculation                       ... on
Quadrupole Moment Calculation                   ... off
Polarizability Calculation                      ... off
GBWName                                         ... benzene_0_3_bp86_6-31gpol.opt.gbw
Electron density file                           ... benzene_0_3_bp86_6-31gpol.opt.scfp
The origin for moment calculation is the CENTER OF MASS  = ( 0.009031, -0.010387  0.000947)

-------------
DIPOLE MOMENT
-------------
                                X             Y             Z
Electronic contribution:     -0.00002       0.00001       0.00000
Nuclear contribution   :      0.00000      -0.00000      -0.00000
                        -----------------------------------------
Total Dipole Moment    :     -0.00001       0.00001      -0.00000
                        -----------------------------------------
Magnitude (a.u.)       :      0.00002
Magnitude (Debye)      :      0.00005



--------------------
Rotational spectrum 
--------------------
 
Rotational constants in cm-1:     0.186863     0.171759     0.089497 
Rotational constants in MHz :  5602.019141  5149.211684  2683.040032 

 Dipole components along the rotational axes: 
x,y,z [a.u.] :    -0.000000    -0.000018    -0.000001 
x,y,z [Debye]:    -0.000000    -0.000047    -0.000002 

 

Timings for individual modules:

Sum of individual times         ...       77.040 sec (=   1.284 min)
GTO integral calculation        ...       16.420 sec (=   0.274 min)  21.3 %
SCF iterations                  ...       44.286 sec (=   0.738 min)  57.5 %
SCF Gradient evaluation         ...       15.856 sec (=   0.264 min)  20.6 %
Geometry relaxation             ...        0.478 sec (=   0.008 min)   0.6 %
                             ****ORCA TERMINATED NORMALLY****
TOTAL RUN TIME: 0 days 0 hours 1 minutes 19 seconds 573 msec
