
                                 *****************
                                 * O   R   C   A *
                                 *****************

                                            #,                                       
                                            ###                                      
                                            ####                                     
                                            #####                                    
                                            ######                                   
                                           ########,                                 
                                     ,,################,,,,,                         
                               ,,#################################,,                 
                          ,,##########################################,,             
                       ,#########################################, ''#####,          
                    ,#############################################,,   '####,        
                  ,##################################################,,,,####,       
                ,###########''''           ''''###############################       
              ,#####''   ,,,,##########,,,,          '''####'''          '####       
            ,##' ,,,,###########################,,,                        '##       
           ' ,,###''''                  '''############,,,                           
         ,,##''                                '''############,,,,        ,,,,,,###''
      ,#''                                            '''#######################'''  
     '                                                          ''''####''''         
             ,#######,   #######,   ,#######,      ##                                
            ,#'     '#,  ##    ##  ,#'     '#,    #''#        ######   ,####,        
            ##       ##  ##   ,#'  ##            #'  '#       #        #'  '#        
            ##       ##  #######   ##           ,######,      #####,   #    #        
            '#,     ,#'  ##    ##  '#,     ,#' ,#      #,         ##   #,  ,#        
             '#######'   ##     ##  '#######'  #'      '#     #####' # '####'        



                  #######################################################
                  #                        -***-                        #
                  #          Department of theory and spectroscopy      #
                  #    Directorship and core code : Frank Neese         #
                  #        Max Planck Institute fuer Kohlenforschung    #
                  #                Kaiser Wilhelm Platz 1               #
                  #                 D-45470 Muelheim/Ruhr               #
                  #                      Germany                        #
                  #                                                     #
                  #                  All rights reserved                #
                  #                        -***-                        #
                  #######################################################


                         Program Version 5.0.2 -  RELEASE  -


 With contributions from (in alphabetic order):
   Daniel Aravena         : Magnetic Suceptibility
   Michael Atanasov       : Ab Initio Ligand Field Theory (pilot matlab implementation)
   Alexander A. Auer      : GIAO ZORA, VPT2 properties, NMR spectrum
   Ute Becker             : Parallelization
   Giovanni Bistoni       : ED, misc. LED, open-shell LED, HFLD
   Martin Brehm           : Molecular dynamics
   Dmytro Bykov           : SCF Hessian
   Vijay G. Chilkuri      : MRCI spin determinant printing, contributions to CSF-ICE
   Dipayan Datta          : RHF DLPNO-CCSD density
   Achintya Kumar Dutta   : EOM-CC, STEOM-CC
   Dmitry Ganyushin       : Spin-Orbit,Spin-Spin,Magnetic field MRCI
   Miquel Garcia          : C-PCM and meta-GGA Hessian, CC/C-PCM, Gaussian charge scheme
   Yang Guo               : DLPNO-NEVPT2, F12-NEVPT2, CIM, IAO-localization
   Andreas Hansen         : Spin unrestricted coupled pair/coupled cluster methods
   Benjamin Helmich-Paris : MC-RPA, TRAH-SCF, COSX integrals
   Lee Huntington         : MR-EOM, pCC
   Robert Izsak           : Overlap fitted RIJCOSX, COSX-SCS-MP3, EOM
   Marcus Kettner         : VPT2
   Christian Kollmar      : KDIIS, OOCD, Brueckner-CCSD(T), CCSD density, CASPT2, CASPT2-K
   Simone Kossmann        : Meta GGA functionals, TD-DFT gradient, OOMP2, MP2 Hessian
   Martin Krupicka        : Initial AUTO-CI
   Lucas Lang             : DCDCAS
   Marvin Lechner         : AUTO-CI (C++ implementation), FIC-MRCC
   Dagmar Lenk            : GEPOL surface, SMD
   Dimitrios Liakos       : Extrapolation schemes; Compound Job, initial MDCI parallelization
   Dimitrios Manganas     : Further ROCIS development; embedding schemes
   Dimitrios Pantazis     : SARC Basis sets
   Anastasios Papadopoulos: AUTO-CI, single reference methods and gradients
   Taras Petrenko         : DFT Hessian,TD-DFT gradient, ASA, ECA, R-Raman, ABS, FL, XAS/XES, NRVS
   Peter Pinski           : DLPNO-MP2, DLPNO-MP2 Gradient
   Christoph Reimann      : Effective Core Potentials
   Marius Retegan         : Local ZFS, SOC
   Christoph Riplinger    : Optimizer, TS searches, QM/MM, DLPNO-CCSD(T), (RO)-DLPNO pert. Triples
   Tobias Risthaus        : Range-separated hybrids, TD-DFT gradient, RPA, STAB
   Michael Roemelt        : Original ROCIS implementation
   Masaaki Saitow         : Open-shell DLPNO-CCSD energy and density
   Barbara Sandhoefer     : DKH picture change effects
   Avijit Sen             : IP-ROCIS
   Kantharuban Sivalingam : CASSCF convergence, NEVPT2, FIC-MRCI
   Bernardo de Souza      : ESD, SOC TD-DFT
   Georgi Stoychev        : AutoAux, RI-MP2 NMR, DLPNO-MP2 response
   Willem Van den Heuvel  : Paramagnetic NMR
   Boris Wezisla          : Elementary symmetry handling
   Frank Wennmohs         : Technical directorship


 We gratefully acknowledge several colleagues who have allowed us to
 interface, adapt or use parts of their codes:
   Stefan Grimme, W. Hujo, H. Kruse, P. Pracht,  : VdW corrections, initial TS optimization,
                  C. Bannwarth, S. Ehlert          DFT functionals, gCP, sTDA/sTD-DF
   Ed Valeev, F. Pavosevic, A. Kumar             : LibInt (2-el integral package), F12 methods
   Garnet Chan, S. Sharma, J. Yang, R. Olivares  : DMRG
   Ulf Ekstrom                                   : XCFun DFT Library
   Mihaly Kallay                                 : mrcc  (arbitrary order and MRCC methods)
   Jiri Pittner, Ondrej Demel                    : Mk-CCSD
   Frank Weinhold                                : gennbo (NPA and NBO analysis)
   Christopher J. Cramer and Donald G. Truhlar   : smd solvation model
   Lars Goerigk                                  : TD-DFT with DH, B97 family of functionals
   V. Asgeirsson, H. Jonsson                     : NEB implementation
   FAccTs GmbH                                   : IRC, NEB, NEB-TS, DLPNO-Multilevel, CI-OPT
                                                   MM, QMMM, 2- and 3-layer-ONIOM, Crystal-QMMM,
                                                   LR-CPCM, SF, NACMEs, symmetry and pop. for TD-DFT,
                                                   nearIR, NL-DFT gradient (VV10), updates on ESD,
                                                   ML-optimized integration grids
   S Lehtola, MJT Oliveira, MAL Marques          : LibXC Library
   Liviu Ungur et al                             : ANISO software


 Your calculation uses the libint2 library for the computation of 2-el integrals
 For citations please refer to: http://libint.valeyev.net

 Your ORCA version has been built with support for libXC version: 5.1.0
 For citations please refer to: https://tddft.org/programs/libxc/

 This ORCA versions uses:
   CBLAS   interface :  Fast vector & matrix operations
   LAPACKE interface :  Fast linear algebra routines
   SCALAPACK package :  Parallel linear algebra routines
   Shared memory     :  Shared parallel matrices
   BLAS/LAPACK       :  OpenBLAS 0.3.15  USE64BITINT DYNAMIC_ARCH NO_AFFINITY SkylakeX SINGLE_THREADED
        Core in use  :  SkylakeX
   Copyright (c) 2011-2014, The OpenBLAS Project


================================================================================

----- Orbital basis set information -----
Your calculation utilizes the basis: ma-def2-TZVPP
   F. Weigend and R. Ahlrichs, Phys. Chem. Chem. Phys. 7, 3297 (2005).
   J. Zheng, X. Xu and D. G. Truhlar, Theor. Chem. Acc. 128, 295 (2011).

================================================================================
                                        WARNINGS
                       Please study these warnings very carefully!
================================================================================


WARNING: Post HF methods need fully converged wavefunctions
  ===> : Setting SCFConvForced true
         You can overwrite this default with %scf ConvForced false 


WARNING: MDCI localization with Augmented Hessian Foster-Boys
  ===> : Switching off randomization!

INFO   : the flag for use of the SHARK integral package has been found!

================================================================================
                                       INPUT FILE
================================================================================
NAME = he2_0_1_ccsd-t_ma-def2-tzvpp_r.inp
|  1> !uhf ccsd(t) ma-def2-tzvpp tightscf
|  2> 
|  3> %paras
|  4>   rHeHe = 5,10,21
|  5> end
|  6> 
|  7> %scf
|  8>   maxiter 250
|  9> end
| 10> 
| 11> *int 0 1
| 12> he 0 0 0 0 0 0
| 13> he 1 0 0 {rHeHe} 0 0
| 14> *
| 15> 
| 16>                          ****END OF INPUT****
================================================================================

                       ******************************
                       * Parameter Scan Calculation *
                       ******************************

Trajectory settings:
    -> SCF surface will be mapped
    -> MDCI surface will be mapped

There are 1 parameter(s) to be scanned
         RHEHE: range=   5.00000000 ..  10.00000000  steps=   21
There will be   21 energy evaluations


         *************************************************************
                                TRAJECTORY STEP   1
              RHEHE  :   5.00000000
         *************************************************************
---------------------------------
CARTESIAN COORDINATES (ANGSTROEM)
---------------------------------
  He     0.000000    0.000000    0.000000
  He     5.000000    0.000000    0.000000

----------------------------
CARTESIAN COORDINATES (A.U.)
----------------------------
  NO LB      ZA    FRAG     MASS         X           Y           Z
   0 He    2.0000    0     4.003    0.000000    0.000000    0.000000
   1 He    2.0000    0     4.003    9.448631    0.000000    0.000000

--------------------------------
INTERNAL COORDINATES (ANGSTROEM)
--------------------------------
 He     0   0   0     0.000000000000     0.00000000     0.00000000
 He     1   0   0     5.000000000000     0.00000000     0.00000000

---------------------------
INTERNAL COORDINATES (A.U.)
---------------------------
 He     0   0   0     0.000000000000     0.00000000     0.00000000
 He     1   0   0     9.448630669606     0.00000000     0.00000000

---------------------
BASIS SET INFORMATION
---------------------
There are 1 groups of distinct atoms

 Group   1 Type He  : 6s3p1d contracted to 4s3p1d pattern {3111/111/1}

Atom   0He   basis set group =>   1
Atom   1He   basis set group =>   1
------------------------------------------------------------------------------
                           ORCA GTO INTEGRAL CALCULATION
------------------------------------------------------------------------------
------------------------------------------------------------------------------
                   ___                                                        
                  /   \      - P O W E R E D   B Y -                         
                 /     \                                                     
                 |  |  |   _    _      __       _____    __    __             
                 |  |  |  | |  | |    /  \     |  _  \  |  |  /  |          
                  \  \/   | |  | |   /    \    | | | |  |  | /  /          
                 / \  \   | |__| |  /  /\  \   | |_| |  |  |/  /          
                |  |  |   |  __  | /  /__\  \  |    /   |      \           
                |  |  |   | |  | | |   __   |  |    \   |  |\   \          
                \     /   | |  | | |  |  |  |  | |\  \  |  | \   \       
                 \___/    |_|  |_| |__|  |__|  |_| \__\ |__|  \__/        
                                                                              
                      - O R C A' S   B I G   F R I E N D -                    
                                      &                                       
                       - I N T E G R A L  F E E D E R -                       
                                                                              
 v1 FN, 2020, v2 2021                                                         
------------------------------------------------------------------------------


Reading SHARK input file he2_0_1_ccsd-t_ma-def2-tzvpp_r.SHARKINP.tmp ... ok
----------------------
SHARK INTEGRAL PACKAGE
----------------------

Number of atoms                             ...      2
Number of basis functions                   ...     36
Number of shells                            ...     16
Maximum angular momentum                    ...      2
Integral batch strategy                     ... SHARK/LIBINT Hybrid
RI-J (if used) integral strategy            ... SPLIT-RIJ (Revised 2003 algorithm where possible)
Printlevel                                  ...      1
Contraction scheme used                     ... SEGMENTED contraction
Coulomb Range Separation                    ... NOT USED
Exchange Range Separation                   ... NOT USED
Finite Nucleus Model                        ... NOT USED
Auxiliary Coulomb fitting basis             ... NOT available
Auxiliary J/K fitting basis                 ... NOT available
Auxiliary Correlation fitting basis         ... NOT available
Auxiliary 'external' fitting basis          ... NOT available
Integral threshold                          ...     2.500000e-11
Primitive cut-off                           ...     2.500000e-12
Primitive pair pre-selection threshold      ...     2.500000e-12

Calculating pre-screening integrals         ... done (  0.0 sec) Dimension = 16
Organizing shell pair data                  ... done (  0.0 sec)
Shell pair information
Total number of shell pairs                 ...       136
Shell pairs after pre-screening             ...       111
Total number of primitive shell pairs       ...       216
Primitive shell pairs kept                  ...       167
          la=0 lb=0:     32 shell pairs
          la=1 lb=0:     40 shell pairs
          la=1 lb=1:     17 shell pairs
          la=2 lb=0:     12 shell pairs
          la=2 lb=1:      8 shell pairs
          la=2 lb=2:      2 shell pairs

Calculating one electron integrals          ... done (  0.0 sec)
Calculating Nuclear repulsion               ... done (  0.0 sec) ENN=      0.423341766640 Eh

SHARK setup successfully completed in   0.1 seconds

Maximum memory used throughout the entire GTOINT-calculation: 6.1 MB
-------------------------------------------------------------------------------
                                 ORCA SCF
-------------------------------------------------------------------------------

------------
SCF SETTINGS
------------
Hamiltonian:
 Ab initio Hamiltonian  Method          .... Hartree-Fock(GTOs)


General Settings:
 Integral files         IntName         .... he2_0_1_ccsd-t_ma-def2-tzvpp_r
 Hartree-Fock type      HFTyp           .... UHF
 Total Charge           Charge          ....    0
 Multiplicity           Mult            ....    1
 Number of Electrons    NEL             ....    4
 Basis Dimension        Dim             ....   36
 Nuclear Repulsion      ENuc            ....      0.4233417666 Eh

Convergence Acceleration:
 DIIS                   CNVDIIS         .... on
   Start iteration      DIISMaxIt       ....    12
   Startup error        DIISStart       ....  0.200000
   # of expansion vecs  DIISMaxEq       ....     5
   Bias factor          DIISBfac        ....   1.050
   Max. coefficient     DIISMaxC        ....  10.000
 Trust-Rad. Augm. Hess. CNVTRAH         .... auto
   Auto Start mean grad. ratio tolernc. ....  1.125000
   Auto Start start iteration           ....    20
   Auto Start num. interpolation iter.  ....    10
   Max. Number of Micro iterations      ....    16
   Max. Number of Macro iterations      .... Maxiter - #DIIS iter
   Number of Davidson start vectors     ....     2
   Converg. threshold I  (grad. norm)   ....   1.000e-05
   Converg. threshold II (energy diff.) ....   1.000e-08
   Grad. Scal. Fac. for Micro threshold ....   0.100
   Minimum threshold for Micro iter.    ....   0.010
   NR start threshold (gradient norm)   ....   0.001
   Initial trust radius                 ....   0.400
   Minimum AH scaling param. (alpha)    ....   1.000
   Maximum AH scaling param. (alpha)    .... 1000.000
   Orbital update algorithm             .... Taylor
   White noise on init. David. guess    .... on
   Maximum white noise                  ....   0.010
   Quad. conv. algorithm                .... NR
 SOSCF                  CNVSOSCF        .... off
 Level Shifting         CNVShift        .... on
   Level shift para.    LevelShift      ....    0.2500
   Turn off err/grad.   ShiftErr        ....    0.0010
 Zerner damping         CNVZerner       .... off
 Static damping         CNVDamp         .... on
   Fraction old density DampFac         ....    0.7000
   Max. Damping (<1)    DampMax         ....    0.9800
   Min. Damping (>=0)   DampMin         ....    0.0000
   Turn off err/grad.   DampErr         ....    0.1000
 Fernandez-Rico         CNVRico         .... off

SCF Procedure:
 Maximum # iterations   MaxIter         ....   250
 SCF integral mode      SCFMode         .... Direct
   Integral package                     .... SHARK and LIBINT hybrid scheme
 Reset frequency        DirectResetFreq ....    20
 Integral Threshold     Thresh          ....  2.500e-11 Eh
 Primitive CutOff       TCut            ....  2.500e-12 Eh

Convergence Tolerance:
 Convergence Check Mode ConvCheckMode   .... Total+1el-Energy
 Convergence forced     ConvForced      .... 1
 Energy Change          TolE            ....  1.000e-08 Eh
 1-El. energy change                    ....  1.000e-05 Eh
 DIIS Error             TolErr          ....  5.000e-07


Diagonalization of the overlap matrix:
Smallest eigenvalue                        ... 6.126e-02
Time for diagonalization                   ...    0.001 sec
Threshold for overlap eigenvalues          ... 1.000e-08
Number of eigenvalues below threshold      ... 0
Time for construction of square roots      ...    0.003 sec
Total time needed                          ...    0.004 sec

Time for model grid setup =    0.007 sec

------------------------------
INITIAL GUESS: MODEL POTENTIAL
------------------------------
Loading Hartree-Fock densities                     ... done
Calculating cut-offs                               ... done
Initializing the effective Hamiltonian             ... done
Setting up the integral package (SHARK)            ... done
Starting the Coulomb interaction                   ... done (   0.0 sec)
Reading the grid                                   ... done
Mapping shells                                     ... done
Starting the XC term evaluation                    ... done (   0.0 sec)
Transforming the Hamiltonian                       ... done (   0.0 sec)
Diagonalizing the Hamiltonian                      ... done (   0.0 sec)
Back transforming the eigenvectors                 ... done (   0.0 sec)
Now organizing SCF variables                       ... done
                      ------------------
                      INITIAL GUESS DONE (   0.0 sec)
                      ------------------
--------------
SCF ITERATIONS
--------------
ITER       Energy         Delta-E        Max-DP      RMS-DP      [F,P]     Damp
               ***  Starting incremental Fock matrix formation  ***
  0     -5.7128449161   0.000000000000 0.00681110  0.00035515  0.0734488 0.7000
  1     -5.7146878926  -0.001842976511 0.00577612  0.00030104  0.0578049 0.7000
                               ***Turning on DIIS***
  2     -5.7161228564  -0.001434963762 0.01457141  0.00076181  0.0438865 0.0000
  3     -5.7173138547  -0.001190998253 0.00223828  0.00013866  0.0081945 0.0000
  4     -5.7192050782  -0.001891223534 0.00068358  0.00004561  0.0020161 0.0000
  5     -5.7198183732  -0.000613295003 0.00023979  0.00001697  0.0004263 0.0000
  6     -5.7199789864  -0.000160613219 0.00003476  0.00000202  0.0000195 0.0000
  7     -5.7199816186  -0.000002632200 0.00000282  0.00000016  0.0000014 0.0000
                            ***DIIS convergence achieved***

               *****************************************************
               *                     SUCCESS                       *
               *           SCF CONVERGED AFTER   8 CYCLES          *
               *****************************************************


----------------
TOTAL SCF ENERGY
----------------

Total Energy       :           -5.71998157 Eh            -155.64861 eV

Components:
Nuclear Repulsion  :            0.42334177 Eh              11.51972 eV
Electronic Energy  :           -6.14332334 Eh            -167.16833 eV
One Electron Energy:           -8.61621237 Eh            -234.45906 eV
Two Electron Energy:            2.47288903 Eh              67.29073 eV

Virial components:
Potential Energy   :          -11.43219068 Eh            -311.08572 eV
Kinetic Energy     :            5.71220911 Eh             155.43711 eV
Virial Ratio       :            2.00136068


---------------
SCF CONVERGENCE
---------------

  Last Energy change         ...    4.8732e-08  Tolerance :   1.0000e-08
  Last MAX-Density change    ...    3.8400e-08  Tolerance :   1.0000e-07
  Last RMS-Density change    ...    2.2688e-09  Tolerance :   5.0000e-09
  Last DIIS Error            ...    2.5869e-08  Tolerance :   5.0000e-07

             **** THE GBW FILE WAS UPDATED (he2_0_1_ccsd-t_ma-def2-tzvpp_r.gbw) ****
             **** DENSITY he2_0_1_ccsd-t_ma-def2-tzvpp_r.scfp WAS UPDATED ****
             **** ENERGY FILE WAS UPDATED (he2_0_1_ccsd-t_ma-def2-tzvpp_r.en.tmp) ****
----------------------
UHF SPIN CONTAMINATION
----------------------

Expectation value of <S**2>     :     0.000000
Ideal value S*(S+1) for S=0.0   :     0.000000
Deviation                       :     0.000000

             **** THE GBW FILE WAS UPDATED (he2_0_1_ccsd-t_ma-def2-tzvpp_r.gbw) ****
             **** DENSITY he2_0_1_ccsd-t_ma-def2-tzvpp_r.scfp WAS UPDATED ****
----------------
ORBITAL ENERGIES
----------------
                 SPIN UP ORBITALS
  NO   OCC          E(Eh)            E(eV) 
   0   1.0000      -0.917621       -24.9697 
   1   1.0000      -0.917596       -24.9691 
   2   0.0000       0.162266         4.4155 
   3   0.0000       0.193931         5.2771 
   4   0.0000       0.518010        14.0958 
   5   0.0000       0.518542        14.1102 
   6   0.0000       0.518542        14.1102 
   7   0.0000       0.518628        14.1126 
   8   0.0000       0.518628        14.1126 
   9   0.0000       0.519733        14.1426 
  10   0.0000       1.139491        31.0071 
  11   0.0000       1.173386        31.9294 
  12   0.0000       2.130867        57.9839 
  13   0.0000       2.131341        57.9967 
  14   0.0000       2.131341        57.9967 
  15   0.0000       2.131426        57.9990 
  16   0.0000       2.131426        57.9990 
  17   0.0000       2.132637        58.0320 
  18   0.0000       6.356643       172.9730 
  19   0.0000       6.356643       172.9730 
  20   0.0000       6.356643       172.9730 
  21   0.0000       6.356643       172.9730 
  22   0.0000       6.356643       172.9730 
  23   0.0000       6.356643       172.9730 
  24   0.0000       6.356643       172.9730 
  25   0.0000       6.356643       172.9730 
  26   0.0000       6.356643       172.9730 
  27   0.0000       6.356643       172.9730 
  28   0.0000       6.624905       180.2728 
  29   0.0000       6.655678       181.1102 
  30   0.0000       8.381396       228.0694 
  31   0.0000       8.381636       228.0759 
  32   0.0000       8.381636       228.0759 
  33   0.0000       8.381679       228.0771 
  34   0.0000       8.381679       228.0771 
  35   0.0000       8.382330       228.0948 

                 SPIN DOWN ORBITALS
  NO   OCC          E(Eh)            E(eV) 
   0   1.0000      -0.917621       -24.9697 
   1   1.0000      -0.917596       -24.9691 
   2   0.0000       0.162266         4.4155 
   3   0.0000       0.193931         5.2771 
   4   0.0000       0.518010        14.0958 
   5   0.0000       0.518542        14.1102 
   6   0.0000       0.518542        14.1102 
   7   0.0000       0.518628        14.1126 
   8   0.0000       0.518628        14.1126 
   9   0.0000       0.519733        14.1426 
  10   0.0000       1.139491        31.0071 
  11   0.0000       1.173386        31.9294 
  12   0.0000       2.130867        57.9839 
  13   0.0000       2.131341        57.9967 
  14   0.0000       2.131341        57.9967 
  15   0.0000       2.131426        57.9990 
  16   0.0000       2.131426        57.9990 
  17   0.0000       2.132637        58.0320 
  18   0.0000       6.356643       172.9730 
  19   0.0000       6.356643       172.9730 
  20   0.0000       6.356643       172.9730 
  21   0.0000       6.356643       172.9730 
  22   0.0000       6.356643       172.9730 
  23   0.0000       6.356643       172.9730 
  24   0.0000       6.356643       172.9730 
  25   0.0000       6.356643       172.9730 
  26   0.0000       6.356643       172.9730 
  27   0.0000       6.356643       172.9730 
  28   0.0000       6.624905       180.2728 
  29   0.0000       6.655678       181.1102 
  30   0.0000       8.381396       228.0694 
  31   0.0000       8.381636       228.0759 
  32   0.0000       8.381636       228.0759 
  33   0.0000       8.381679       228.0771 
  34   0.0000       8.381679       228.0771 
  35   0.0000       8.382330       228.0948 

                    ********************************
                    * MULLIKEN POPULATION ANALYSIS *
                    ********************************

--------------------------------------------
MULLIKEN ATOMIC CHARGES AND SPIN POPULATIONS
--------------------------------------------
   0 He:    0.000000    0.000000
   1 He:    0.000000    0.000000
Sum of atomic charges         :    0.0000000
Sum of atomic spin populations:    0.0000000

-----------------------------------------------------
MULLIKEN REDUCED ORBITAL CHARGES AND SPIN POPULATIONS
-----------------------------------------------------
CHARGE
  0 Hes       :     2.000000  s :     2.000000
      pz      :     0.000000  p :     0.000000
      px      :     0.000000
      py      :     0.000000
      dz2     :     0.000000  d :     0.000000
      dxz     :     0.000000
      dyz     :     0.000000
      dx2y2   :     0.000000
      dxy     :     0.000000
  1 Hes       :     2.000000  s :     2.000000
      pz      :     0.000000  p :     0.000000
      px      :     0.000000
      py      :     0.000000
      dz2     :     0.000000  d :     0.000000
      dxz     :     0.000000
      dyz     :     0.000000
      dx2y2   :     0.000000
      dxy     :     0.000000

SPIN
  0 Hes       :     0.000000  s :     0.000000
      pz      :     0.000000  p :     0.000000
      px      :     0.000000
      py      :     0.000000
      dz2     :     0.000000  d :     0.000000
      dxz     :     0.000000
      dyz     :     0.000000
      dx2y2   :     0.000000
      dxy     :     0.000000
  1 Hes       :     0.000000  s :     0.000000
      pz      :     0.000000  p :     0.000000
      px      :     0.000000
      py      :     0.000000
      dz2     :     0.000000  d :     0.000000
      dxz     :     0.000000
      dyz     :     0.000000
      dx2y2   :     0.000000
      dxy     :     0.000000


                     *******************************
                     * LOEWDIN POPULATION ANALYSIS *
                     *******************************

-------------------------------------------
LOEWDIN ATOMIC CHARGES AND SPIN POPULATIONS
-------------------------------------------
   0 He:    0.000000    0.000000
   1 He:    0.000000    0.000000

----------------------------------------------------
LOEWDIN REDUCED ORBITAL CHARGES AND SPIN POPULATIONS
----------------------------------------------------
CHARGE
  0 Hes       :     2.000000  s :     2.000000
      pz      :     0.000000  p :     0.000000
      px      :     0.000000
      py      :     0.000000
      dz2     :     0.000000  d :     0.000000
      dxz     :     0.000000
      dyz     :     0.000000
      dx2y2   :     0.000000
      dxy     :     0.000000
  1 Hes       :     2.000000  s :     2.000000
      pz      :     0.000000  p :     0.000000
      px      :     0.000000
      py      :     0.000000
      dz2     :     0.000000  d :     0.000000
      dxz     :     0.000000
      dyz     :     0.000000
      dx2y2   :     0.000000
      dxy     :     0.000000

SPIN
  0 Hes       :     0.000000  s :     0.000000
      pz      :     0.000000  p :     0.000000
      px      :     0.000000
      py      :     0.000000
      dz2     :     0.000000  d :     0.000000
      dxz     :     0.000000
      dyz     :     0.000000
      dx2y2   :     0.000000
      dxy     :     0.000000
  1 Hes       :     0.000000  s :     0.000000
      pz      :     0.000000  p :     0.000000
      px      :     0.000000
      py      :     0.000000
      dz2     :     0.000000  d :     0.000000
      dxz     :     0.000000
      dyz     :     0.000000
      dx2y2   :     0.000000
      dxy     :     0.000000


                      *****************************
                      * MAYER POPULATION ANALYSIS *
                      *****************************

  NA   - Mulliken gross atomic population
  ZA   - Total nuclear charge
  QA   - Mulliken gross atomic charge
  VA   - Mayer's total valence
  BVA  - Mayer's bonded valence
  FA   - Mayer's free valence

  ATOM       NA         ZA         QA         VA         BVA        FA
  0 He     2.0000     2.0000     0.0000     0.0000     0.0000     0.0000
  1 He     2.0000     2.0000     0.0000     0.0000     0.0000     0.0000

  Mayer bond orders larger than 0.100000


-------
TIMINGS
-------

Total SCF time: 0 days 0 hours 0 min 0 sec 

Total time                  ....       0.308 sec
Sum of individual times     ....       0.141 sec  ( 45.9%)

Fock matrix formation       ....       0.092 sec  ( 29.8%)
Diagonalization             ....       0.009 sec  (  2.9%)
Density matrix formation    ....       0.000 sec  (  0.1%)
Population analysis         ....       0.015 sec  (  4.8%)
Initial guess               ....       0.010 sec  (  3.4%)
Orbital Transformation      ....       0.000 sec  (  0.0%)
Orbital Orthonormalization  ....       0.000 sec  (  0.0%)
DIIS solution               ....       0.008 sec  (  2.7%)

Maximum memory used throughout the entire SCF-calculation: 224.4 MB


--------------------------------------------------------------------------------
                             ORCA-MATRIX DRIVEN CI
--------------------------------------------------------------------------------

--------------------------------
AUTOMATIC CHOICE OF INCORE LEVEL
--------------------------------

Memory available                           ...    256.00 MB
Memory needed for S+T                      ...      0.08 MB
Memory needed for J+K                      ...      0.16 MB
Memory needed for DIIS                     ...      1.11 MB
Memory needed for 3-ext                    ...      0.60 MB
Memory needed for 4-ext                    ...      5.25 MB
Memory needed for triples                  ...      1.50 MB
 -> Final InCoreLevel    ... 5
 -> check shows that triples correction can be computed


Wavefunction type
-----------------
Correlation treatment                      ...      CCSD     
Single excitations                         ... ON
Orbital optimization                       ... OFF
Calculation of Z vector                    ... OFF
Calculation of Brueckner orbitals          ... OFF
Perturbative triple excitations            ... ON
Calculation of F12 correction              ... OFF
Frozen core treatment                      ... chemical core (0 el)
Reference Wavefunction                     ... UHF
  Alpha-MOs occ    :     0 ...    1 (  2 MO's/  2 electrons)
  Beta-MOs occ     :     0 ...    1 (  2 MO's/  2 electrons)
  Alpha-MOs virt   :     2 ...   35 ( 34 MO's              )
  Beta-MOs virt    :     2 ...   35 ( 34 MO's              )
Number of AO's                             ...     36
Number of electrons                        ...      4
Number of correlated electrons             ...      4

Algorithmic settings
--------------------
Integral transformation                    ... AO direct full transformation
K(C) Formation                             ... FULL-MO TRAFO
Maximum number of iterations               ...        50
Convergence tolerance (max. residuum)      ... 1.000e-05
Level shift for amplitude update           ... 2.000e-01
Maximum number of DIIS vectors             ...         7
DIIS turned on at iteration                ...         0
Damping before turning on DIIS             ...     0.500
Damping after turning on DIIS              ...     0.000
Pair specific amplitude update             ... OFF
Natural orbital iterations                 ... OFF
Perturbative natural orbital generation    ... OFF
Printlevel                                 ... 2

Memory handling:
----------------
Maximum memory for working arrays          ...    256 MB
Data storage in matrix containers          ... UNCOMPRESSED
Data type for integral storage             ... DOUBLE
In-Core Storage of quantities:
   Amplitudes+Sigma Vector      ... YES
   J+K operators                ... YES
   DIIS vectors                 ... YES
   3-external integrals         ... YES
   4-external integrals         ... YES


Initializing the integral package          ... done
Warning: reference  - re-canonicalizations have been set to INT 1 VIRT 1

--------------------------
UNRESTRICTED FOCK OPERATOR
--------------------------

Restoring SHARK [2] ... ok
Recanonicalizing the internal orbitals
Recanonicalizing the virtual orbitals
Time needed for Fock operator              ...            0.089 sec
Reference energy                           ...     -5.719981572
Warning: for UHF the TrafoType has to be JK
Warning: for UHF the K(C)-option but must be AOX

-------------------------------
PARTIAL EXCHANGE TRANSFORMATION
-------------------------------

Transformation type                        ... two-operators
Generation of integrals (i,mue|j,nue)      ... ON
Generation of integrals (mue,kappa|nue,tau)... ON
Generation of integrals (i,mue|a,nue)      ... ON
Dimension of the basis                     ...   36
Number of internal alpha-MOs               ...    2 (   0-   1)
Number of internal beta-MOs                ...    2 (   0-   1)
Number of external alpha-MOs               ...   34 (   2-  35)
Number of external beta-MOs                ...   34 (   2-  35)
Pair cutoff                                ... 0.000e+00 Eh
Number of AO pairs in the trafo            ...  666
Total Number of distinct AO pairs          ...  666
Memory devoted for trafo                   ...  256.0 MB 
Max. Number of MO pairs treated together   ... 25890      
Number Format for Storage                  ... Double (8 Byte)
Integral package used                      ... LIBINT

Starting integral evaluation:
    ... done with AO integral generation
Closing buffer AOK[aa] ( 0.00 GB; CompressionRatio= 0.73)
Closing buffer AOK[bb] ( 0.00 GB; CompressionRatio= 0.73)
Closing buffer AOK[ab] ( 0.00 GB; CompressionRatio= 0.73)
Closing buffer AOK[ba] ( 0.00 GB; CompressionRatio= 0.73)
Collecting buffer AOK 
Closing buffer IAAO1[aa] ( 0.00 GB; CompressionRatio= 0.98)
Closing buffer IAAO1[bb] ( 0.00 GB; CompressionRatio= 0.98)
Closing buffer IAAO1[ab] ( 0.00 GB; CompressionRatio= 0.98)
Closing buffer IAAO1[ba] ( 0.00 GB; CompressionRatio= 0.98)
Closing buffer IAAO2[aa] ( 0.00 GB; CompressionRatio= 0.98)
Closing buffer IAAO2[bb] ( 0.00 GB; CompressionRatio= 0.98)
Closing buffer IAAO2[ab] ( 0.00 GB; CompressionRatio= 0.98)
Closing buffer IAAO2[ba] ( 0.00 GB; CompressionRatio= 0.98)
Collecting buffer IAAO 
Closing buffer PRQS    ( 0.01 GB; CompressionRatio= 1.00)
Collecting buffer PRQS 
Number of alpha/alpha MO pairs in trafo    ...    3
Number of beta /beta  MO pairs in trafo    ...    3
Number of alpha/ beta MO pairs in trafo    ...    4
------------------------
SORTING OF (i,mue|j,nue)
------------------------

SORTING OF ALPHA/ALPHA PAIRS
IBATCH = 1 of  1
Closing buffer KAO[aa] ( 0.00 GB; CompressionRatio= 1.00)
Collecting buffer KAO 
SORTING OF BETA /BETA  PAIRS
IBATCH = 1 of  1
Closing buffer KAO[bb] ( 0.00 GB; CompressionRatio= 1.00)
Collecting buffer KAO 
SORTING OF ALPHA/BETA  PAIRS
IBATCH = 1 of  1
Closing buffer KAO[ab] ( 0.00 GB; CompressionRatio= 0.998843930636)
Collecting buffer KAO[ab] 
------------------------
SORTING OF (i,mue|a,nue)
------------------------

Number of alpha/alpha (i,a) pairs in trafo  ...   68
Number of beta /beta  (i,a) pairs in trafo  ...   68
Number of alpha/ beta (i,a) pairs in trafo  ...   68
Number of beta /alpha (i,a) pairs in trafo  ...   68
Setting up the alpha/alpha list             ... done
Setting up the beta /beta  list             ... done
Setting up the alpha/beta  list             ... done
Setting up the beta /alpha list             ... done
    ... Now sorting (i,mue|a,nue)integrals
    ... Integrals (i,b|a,c) will be made on the fly
SORTING OF ALPHA/ALPHA PAIRS
IBATCH = 1 of  1
Closing buffer IPAQ[aa]  0.00 GB; CompressionRatio= 1.00)
SORTING OF BETA /BETA  PAIRS
IBATCH = 1 of  1
Closing buffer IPAQ[bb]( 0.00 GB; CompressionRatio= 1.00)
SORTING OF ALPHA/BETA  PAIRS (NMatSort_ab=68)
IBATCH = 1 of  1
Closing buffer IPAQ[ab]( 0.00 GB; CompressionRatio= 1.00)
SORTING OF BETA/ALPHA  PAIRS
IBATCH = 1 of  1
Closing buffer IPAQ[ba]( 0.00 GB; CompressionRatio= 1.00)
N(AO-Batches) Done                         ...     22591 
N(AO-Batches) Skipped                      ...         0 
N(IJ)-pairs Skipped                        ...         0 
TOTAL TIME for half transformation         ...     0.290 sec
AO-integral generation                     ...     0.016 sec
Half transformation                        ...     0.149 sec
K-integral sorting                         ...     0.038 sec

------------------------------
PARTIAL COULOMB TRANSFORMATION
------------------------------

Transformation type                        ... two-operators
Dimension of the basis                     ...   36
Number of internal alpha-MOs               ...    2 (0-1)
Number of internal beta-MOs                ...    2 (0-1)
Pair cutoff                                ... 0.000e+00 Eh
Number of AO pairs included in the trafo   ...  666
Total Number of distinct AO pairs          ...  666
Memory devoted for trafo                   ...  256.0 MB 
Max. Number of MO pairs treated together   ... 50382      
Max. Number of MOs treated per batch       ... 1399      
Number Format for Storage                  ... Double (8 Byte)
AO-integral source                         ... DIRECT
Integral package used                      ... LIBINT

Starting integral evaluation:
<ss|**>:         3552 b        0 skpd     0.004 s (  0.001 ms/b)
<sp|**>:         4440 b        0 skpd     0.006 s (  0.001 ms/b)
<sd|**>:         1332 b        0 skpd     0.003 s (  0.002 ms/b)
<pp|**>:         1887 b        0 skpd     0.007 s (  0.003 ms/b)
<pd|**>:          888 b        0 skpd     0.006 s (  0.006 ms/b)
<dd|**>:          222 b        0 skpd     0.002 s (  0.008 ms/b)
Closing buffer AOJ[aa] ( 0.00 GB; CompressionRatio= 0.67)
Closing buffer AOJ[bb] ( 0.00 GB; CompressionRatio= 0.67)
Collecting buffer AOJ 
    ... done with AO integral generation
Number of Alpha-MO pairs included          ...    3
Number of Beta-MO pairs included           ...    3
    ... Now sorting integrals
SORTING ALPHA/ALPHA PAIRS
IBATCH = 1 of  1
Closing buffer JAO[aa] ( 0.00 GB; CompressionRatio= 1.00)
SORTING BETA/BETA PAIRS
IBATCH = 1 of  1
Closing buffer JAO[bb] ( 0.00 GB; CompressionRatio= 1.00)
Collecting buffer JAO 
TOTAL TIME for half transformation         ...     0.046 sec
AO-integral generation                     ...     0.008 sec
Half transformation                        ...     0.020 sec
J-integral sorting                         ...     0.005 sec

-------------------------- SECOND HALF TRANSFORMATION --------------------------
Formation of (ij|kl),(ij|ka), (ij|ab)      ... ok (     0.006 sec)
Formation of (ik|jl),(ik|ja), (ia|jb)      ... ok (     0.009 sec)


-----------------------
SPIN UNRESTRICTED GUESS
-----------------------

Spin-components of the MP2 energy:
EMP2(aa)=     -0.000000393
EMP2(bb)=     -0.000000393
EMP2(ab)=     -0.066756754

Initial guess performed in     0.000 sec
E(0)                                       ...     -5.719981572
E(MP2)                                     ...     -0.066757539
Initial E(tot)                             ...     -5.786739111
<T|T>                                      ...      0.010815224
Number of pairs included                   ... 6

------------------------------------------------
                  UHF COUPLED CLUSTER ITERATIONS
------------------------------------------------

Number of amplitudes to be optimized       ...         5848

Iter       E(tot)           E(Corr)          Delta-E          Residual     Time      <S|S>**1/2
  0     -5.786739111     -0.066757539      0.000000000      0.014291380    0.02      0.000000001
                           *** Turning on DIIS ***
  1     -5.795760641     -0.075779069     -0.009021530      0.004015684    0.03      0.001526471
  2     -5.798358889     -0.078377317     -0.002598248      0.000450780    0.03      0.002418738
  3     -5.798427312     -0.078445740     -0.000068424      0.000154765    0.03      0.002892988
  4     -5.798441695     -0.078460123     -0.000014383      0.000015982    0.03      0.003130289
  5     -5.798441927     -0.078460355     -0.000000232      0.000002155    0.03      0.003151653
               --- The Coupled-Cluster iterations have converged ---

----------------------
COUPLED CLUSTER ENERGY
----------------------

E(0)                                       ...     -5.719981572
E(CORR)                                    ...     -0.078460355
E(TOT)                                     ...     -5.798441927
Singles norm <S|S>**1/2                    ...      0.003151653 ( 0.001575827, 0.001575827)  
T1 diagnostic                              ...      0.001575827                              

------------------
LARGEST AMPLITUDES
------------------
   1a-> 10a   1b-> 10b       0.020952
   0a-> 10a   0b-> 10b       0.020949
   1a-> 10a   0b-> 11b       0.020608
   0a-> 11a   1b-> 10b       0.020608
   0a-> 10a   1b-> 11b       0.020608
   1a-> 11a   0b-> 10b       0.020608
   1a-> 11a   1b-> 11b       0.020294
   0a-> 11a   0b-> 11b       0.020292
   0a->  3a   1b-> 10b       0.012338
   1a-> 10a   0b->  3b       0.012338
   1a->  3a   0b-> 10b       0.012338
   0a-> 10a   1b->  3b       0.012338
   1a->  3a   1b-> 11b       0.012111
   1a-> 11a   1b->  3b       0.012111
   0a->  3a   0b-> 11b       0.012110
   0a-> 11a   0b->  3b       0.012110

----------------------
UHF TRIPLES CORRECTION (Algorithm 1)
----------------------

Multiplier for the singles contribution    ...      1.000000000

SPIN-CASE Alpha-Alpha-Alpha:

SPIN-CASE Beta-Beta-Beta:

SPIN-CASE Alpha-Alpha-Beta:
10% done
20% done
30% done
40% done
50% done
60% done
70% done
80% done
90% done


SPIN-CASE Beta-Beta-Alpha:
10% done
20% done
30% done
40% done
50% done
60% done
70% done
80% done
90% done


Triples Correction (T)                     ...     -0.000000123
    alpha-alpha-alpha ...  0.000000000 ( -0.0%)
    alpha-alpha-beta  ... -0.000000061 ( 50.0%)
    alpha-beta -beta  ... -0.000000061 ( 50.0%)
    beta -beta -beta  ...  0.000000000 ( -0.0%)
Scaling of triples based on CCSD energies (Peterson et al. Molecular Physics 113, 1551 (2015))
E(T*) = f*E(T) where f = E(F12-CCSD)/E(CCSD) 
f = CCSD (with F12)/ CCSD (without F12)    ...      1.000000000
Scaled triples correction (T)              ...     -0.000000123

Final correlation energy                   ...     -0.078460478
E(CCSD)                                    ...     -5.798441927
E(CCSD(T))                                 ...     -5.798442050



        !!!!!!!!!!!!!!!!!!!!!!!!!!!!!!!!!!!!!!!!!!!!!!!!!!!!!!!!!!!!!!!!!!!!!!!!!! 
        !  Warning: Densities are linearized densities                           !
        !!!!!!!!!!!!!!!!!!!!!!!!!!!!!!!!!!!!!!!!!!!!!!!!!!!!!!!!!!!!!!!!!!!!!!!!!! 

NORM  =      1.016219452 sqrt=     1.008077106
W(HF) =      0.984039420
------------------------------------------------------------------------------
                           ORCA POPULATION ANALYSIS
------------------------------------------------------------------------------
Input electron density              ... he2_0_1_ccsd-t_ma-def2-tzvpp_r.mdcip
Input spin density                  ... he2_0_1_ccsd-t_ma-def2-tzvpp_r.mdcir
BaseName (.gbw .S,...)              ... he2_0_1_ccsd-t_ma-def2-tzvpp_r

                    ********************************
                    * MULLIKEN POPULATION ANALYSIS *
                    ********************************

------------------------------------------
MULLIKEN ATOMIC CHARGES AND SPIN DENSITIES
------------------------------------------
   0 He:    0.000000   -0.000000
   1 He:    0.000000   -0.000000
Sum of atomic charges       :    0.0000000
Sum of atomic spin densities:   -0.0000000

---------------------------------------------------
MULLIKEN REDUCED ORBITAL CHARGES AND SPIN DENSITIES
---------------------------------------------------
CHARGE
  0 Hes       :     1.991541  s :     1.991541
      pz      :     0.002736  p :     0.008208
      px      :     0.002736
      py      :     0.002736
      dz2     :     0.000050  d :     0.000251
      dxz     :     0.000050
      dyz     :     0.000050
      dx2y2   :     0.000050
      dxy     :     0.000050
  1 Hes       :     1.991541  s :     1.991541
      pz      :     0.002736  p :     0.008208
      px      :     0.002736
      py      :     0.002736
      dz2     :     0.000050  d :     0.000251
      dxz     :     0.000050
      dyz     :     0.000050
      dx2y2   :     0.000050
      dxy     :     0.000050

SPIN
  0 Hes       :    -0.000000  s :    -0.000000
      pz      :    -0.000000  p :    -0.000000
      px      :     0.000000
      py      :    -0.000000
      dz2     :     0.000000  d :     0.000000
      dxz     :    -0.000000
      dyz     :     0.000000
      dx2y2   :     0.000000
      dxy     :     0.000000
  1 Hes       :    -0.000000  s :    -0.000000
      pz      :    -0.000000  p :     0.000000
      px      :     0.000000
      py      :    -0.000000
      dz2     :     0.000000  d :     0.000000
      dxz     :    -0.000000
      dyz     :     0.000000
      dx2y2   :     0.000000
      dxy     :     0.000000


                     *******************************
                     * LOEWDIN POPULATION ANALYSIS *
                     *******************************

-----------------------------------------
LOEWDIN ATOMIC CHARGES AND SPIN DENSITIES
-----------------------------------------
   0 He:    0.000000   -0.000000
   1 He:    0.000000   -0.000000

--------------------------------------------------
LOEWDIN REDUCED ORBITAL CHARGES AND SPIN DENSITIES
--------------------------------------------------
CHARGE
  0 Hes       :     1.991541  s :     1.991541
      pz      :     0.002736  p :     0.008209
      px      :     0.002737
      py      :     0.002736
      dz2     :     0.000050  d :     0.000251
      dxz     :     0.000050
      dyz     :     0.000050
      dx2y2   :     0.000050
      dxy     :     0.000050
  1 Hes       :     1.991541  s :     1.991541
      pz      :     0.002736  p :     0.008209
      px      :     0.002737
      py      :     0.002736
      dz2     :     0.000050  d :     0.000251
      dxz     :     0.000050
      dyz     :     0.000050
      dx2y2   :     0.000050
      dxy     :     0.000050

SPIN
  0 Hes       :    -0.000000  s :    -0.000000
      pz      :    -0.000000  p :    -0.000000
      px      :     0.000000
      py      :    -0.000000
      dz2     :     0.000000  d :     0.000000
      dxz     :    -0.000000
      dyz     :     0.000000
      dx2y2   :    -0.000000
      dxy     :     0.000000
  1 Hes       :    -0.000000  s :    -0.000000
      pz      :    -0.000000  p :     0.000000
      px      :     0.000000
      py      :    -0.000000
      dz2     :     0.000000  d :     0.000000
      dxz     :    -0.000000
      dyz     :     0.000000
      dx2y2   :    -0.000000
      dxy     :     0.000000


                      *****************************
                      * MAYER POPULATION ANALYSIS *
                      *****************************

  NA   - Mulliken gross atomic population
  ZA   - Total nuclear charge
  QA   - Mulliken gross atomic charge
  VA   - Mayer's total valence
  BVA  - Mayer's bonded valence
  FA   - Mayer's free valence

  ATOM       NA         ZA         QA         VA         BVA        FA
  0 He     2.0000     2.0000     0.0000     0.0645     0.0000     0.0645
  1 He     2.0000     2.0000     0.0000     0.0645     0.0000     0.0645

  Mayer bond orders larger than 0.100000




--------------------------------------------------------------------------------
                                    TIMINGS
--------------------------------------------------------------------------------


Total execution time                   ...        0.853 sec

Fock Matrix Formation                  ...        0.089 sec ( 10.5%)
Initial Guess                          ...        0.000 sec (  0.0%)
DIIS Solver                            ...        0.002 sec (  0.2%)
State Vector Update                    ...        0.000 sec (  0.0%)
Sigma-vector construction              ...        0.164 sec ( 19.2%)
  <D|H|D>(2-ext)                       ...        0.003 sec (  1.6% of sigma)
  <D|H|D>(4-ext)                       ...        0.111 sec ( 67.6% of sigma)
  Fock-dressing                        ...        0.019 sec ( 11.4% of sigma)
  (ij|ab),(ia|jb)-dressing             ...        0.012 sec (  7.5% of sigma)
Total Time for computing (T)           ...        0.009 sec (  1.1% of ALL)
  I/O of integral and amplitudes       ...        0.002 sec ( 21.9% of (T))
  External N**7 contributions          ...        0.002 sec ( 18.7% of (T))
  N**6 triples energy contributions    ...        0.003 sec ( 36.6% of (T))


Maximum memory used throughout the entire MDCI-calculation: 63.8 MB

-------------------------   --------------------
FINAL SINGLE POINT ENERGY        -5.798442049828
-------------------------   --------------------

Storing actual gbw-file in he2_0_1_ccsd-t_ma-def2-tzvpp_r.001.gbw ... done

                            ***************************************
                            *     ORCA property calculations      *
                            ***************************************

                                    ---------------------
                                    Active property flags
                                    ---------------------
   (+) Dipole Moment


------------------------------------------------------------------------------
                       ORCA ELECTRIC PROPERTIES CALCULATION
------------------------------------------------------------------------------

Dipole Moment Calculation                       ... on
Quadrupole Moment Calculation                   ... off
Polarizability Calculation                      ... off
GBWName                                         ... he2_0_1_ccsd-t_ma-def2-tzvpp_r.gbw
Electron density                                ... he2_0_1_ccsd-t_ma-def2-tzvpp_r.scfp
The origin for moment calculation is the CENTER OF MASS  = ( 4.724315,  0.000000  0.000000)

-------------
DIPOLE MOMENT
-------------
                                X             Y             Z
Electronic contribution:      0.00000      -0.00000      -0.00000
Nuclear contribution   :      0.00000       0.00000       0.00000
                        -----------------------------------------
Total Dipole Moment    :      0.00000      -0.00000      -0.00000
                        -----------------------------------------
Magnitude (a.u.)       :      0.00000
Magnitude (Debye)      :      0.00000



--------------------
Rotational spectrum 
--------------------
 
Rotational constants in cm-1:     0.000000     0.336900     0.336900 
Rotational constants in MHz :     0.000000 10100.014583 10100.014583 

 Dipole components along the rotational axes: 
x,y,z [a.u.] :     0.000000    -0.000000    -0.000000 
x,y,z [Debye]:     0.000000    -0.000000    -0.000000 

 

                           *** MDCI DENSITY ***

------------------------------------------------------------------------------
                       ORCA ELECTRIC PROPERTIES CALCULATION
------------------------------------------------------------------------------

Dipole Moment Calculation                       ... on
Quadrupole Moment Calculation                   ... off
Polarizability Calculation                      ... off
GBWName                                         ... he2_0_1_ccsd-t_ma-def2-tzvpp_r.gbw
Electron density                                ... he2_0_1_ccsd-t_ma-def2-tzvpp_r.mdcip
The origin for moment calculation is the CENTER OF MASS  = ( 4.724315,  0.000000  0.000000)

-------------
DIPOLE MOMENT
-------------
                                X             Y             Z
Electronic contribution:     -0.00000      -0.00000      -0.00000
Nuclear contribution   :      0.00000       0.00000       0.00000
                        -----------------------------------------
Total Dipole Moment    :     -0.00000      -0.00000      -0.00000
                        -----------------------------------------
Magnitude (a.u.)       :      0.00000
Magnitude (Debye)      :      0.00000



--------------------
Rotational spectrum 
--------------------
 
Rotational constants in cm-1:     0.000000     0.336900     0.336900 
Rotational constants in MHz :     0.000000 10100.014583 10100.014583 

 Dipole components along the rotational axes: 
x,y,z [a.u.] :    -0.000000    -0.000000    -0.000000 
x,y,z [Debye]:    -0.000000    -0.000000    -0.000000 

 

         *************************************************************
                                TRAJECTORY STEP   2
              RHEHE  :   5.25000000
         *************************************************************
---------------------------------
CARTESIAN COORDINATES (ANGSTROEM)
---------------------------------
  He     0.000000    0.000000    0.000000
  He     5.250000    0.000000    0.000000

----------------------------
CARTESIAN COORDINATES (A.U.)
----------------------------
  NO LB      ZA    FRAG     MASS         X           Y           Z
   0 He    2.0000    0     4.003    0.000000    0.000000    0.000000
   1 He    2.0000    0     4.003    9.921062    0.000000    0.000000

--------------------------------
INTERNAL COORDINATES (ANGSTROEM)
--------------------------------
 He     0   0   0     0.000000000000     0.00000000     0.00000000
 He     1   0   0     5.250000000000     0.00000000     0.00000000

---------------------------
INTERNAL COORDINATES (A.U.)
---------------------------
 He     0   0   0     0.000000000000     0.00000000     0.00000000
 He     1   0   0     9.921062203087     0.00000000     0.00000000

------------------------------------------------------------------------------
                   ___                                                        
                  /   \      - P O W E R E D   B Y -                         
                 /     \                                                     
                 |  |  |   _    _      __       _____    __    __             
                 |  |  |  | |  | |    /  \     |  _  \  |  |  /  |          
                  \  \/   | |  | |   /    \    | | | |  |  | /  /          
                 / \  \   | |__| |  /  /\  \   | |_| |  |  |/  /          
                |  |  |   |  __  | /  /__\  \  |    /   |      \           
                |  |  |   | |  | | |   __   |  |    \   |  |\   \          
                \     /   | |  | | |  |  |  |  | |\  \  |  | \   \       
                 \___/    |_|  |_| |__|  |__|  |_| \__\ |__|  \__/        
                                                                              
                      - O R C A' S   B I G   F R I E N D -                    
                                      &                                       
                       - I N T E G R A L  F E E D E R -                       
                                                                              
 v1 FN, 2020, v2 2021                                                         
------------------------------------------------------------------------------


Reading SHARK input file he2_0_1_ccsd-t_ma-def2-tzvpp_r.SHARKINP.tmp ... ok
----------------------
SHARK INTEGRAL PACKAGE
----------------------

Number of atoms                             ...      2
Number of basis functions                   ...     36
Number of shells                            ...     16
Maximum angular momentum                    ...      2
Integral batch strategy                     ... SHARK/LIBINT Hybrid
RI-J (if used) integral strategy            ... SPLIT-RIJ (Revised 2003 algorithm where possible)
Printlevel                                  ...      1
Contraction scheme used                     ... SEGMENTED contraction
Coulomb Range Separation                    ... NOT USED
Exchange Range Separation                   ... NOT USED
Finite Nucleus Model                        ... NOT USED
Auxiliary Coulomb fitting basis             ... NOT available
Auxiliary J/K fitting basis                 ... NOT available
Auxiliary Correlation fitting basis         ... NOT available
Auxiliary 'external' fitting basis          ... NOT available
Integral threshold                          ...     2.500000e-11
Primitive cut-off                           ...     2.500000e-12
Primitive pair pre-selection threshold      ...     2.500000e-12

Calculating pre-screening integrals         ... done (  0.0 sec) Dimension = 16
Organizing shell pair data                  ... done (  0.0 sec)
Shell pair information
Total number of shell pairs                 ...       136
Shell pairs after pre-screening             ...       111
Total number of primitive shell pairs       ...       216
Primitive shell pairs kept                  ...       167
          la=0 lb=0:     32 shell pairs
          la=1 lb=0:     40 shell pairs
          la=1 lb=1:     17 shell pairs
          la=2 lb=0:     12 shell pairs
          la=2 lb=1:      8 shell pairs
          la=2 lb=2:      2 shell pairs

Calculating one electron integrals          ... done (  0.0 sec)
Calculating Nuclear repulsion               ... done (  0.0 sec) ENN=      0.403182634895 Eh

SHARK setup successfully completed in   0.1 seconds

Maximum memory used throughout the entire GTOINT-calculation: 6.1 MB

Diagonalization of the overlap matrix:
Smallest eigenvalue                        ... 6.192e-02
Time for diagonalization                   ...    0.000 sec
Threshold for overlap eigenvalues          ... 1.000e-08
Number of eigenvalues below threshold      ... 0
Time for construction of square roots      ...    0.002 sec
Total time needed                          ...    0.003 sec

--------------
SCF ITERATIONS
--------------
ITER       Energy         Delta-E        Max-DP      RMS-DP      [F,P]     Damp
               ***  Starting incremental Fock matrix formation  ***
  0     -5.7199814171   0.000000000000 0.00002520  0.00000130  0.0000901 0.7000
                 **** Energy Check signals convergence ****

               *****************************************************
               *                     SUCCESS                       *
               *           SCF CONVERGED AFTER   1 CYCLES          *
               *****************************************************

Total Energy       :           -5.71998142 Eh            -155.64861 eV
  Last Energy change         ...   -7.5816e-09  Tolerance :   1.0000e-08
  Last MAX-Density change    ...    2.1656e-05  Tolerance :   1.0000e-07
             **** THE GBW FILE WAS UPDATED (he2_0_1_ccsd-t_ma-def2-tzvpp_r.gbw) ****
             **** DENSITY he2_0_1_ccsd-t_ma-def2-tzvpp_r.scfp WAS UPDATED ****
             **** ENERGY FILE WAS UPDATED (he2_0_1_ccsd-t_ma-def2-tzvpp_r.en.tmp) ****
----------------------
UHF SPIN CONTAMINATION
----------------------

Expectation value of <S**2>     :     0.000000
Ideal value S*(S+1) for S=0.0   :     0.000000
Deviation                       :     0.000000

             **** THE GBW FILE WAS UPDATED (he2_0_1_ccsd-t_ma-def2-tzvpp_r.gbw) ****
             **** DENSITY he2_0_1_ccsd-t_ma-def2-tzvpp_r.scfp WAS UPDATED ****
Total SCF time: 0 days 0 hours 0 min 0 sec 

Maximum memory used throughout the entire SCF-calculation: 224.4 MB


--------------------------------------------------------------------------------
                             ORCA-MATRIX DRIVEN CI
--------------------------------------------------------------------------------

--------------------------------
AUTOMATIC CHOICE OF INCORE LEVEL
--------------------------------

Memory available                           ...    256.00 MB
Memory needed for S+T                      ...      0.08 MB
Memory needed for J+K                      ...      0.16 MB
Memory needed for DIIS                     ...      1.11 MB
Memory needed for 3-ext                    ...      0.60 MB
Memory needed for 4-ext                    ...      5.25 MB
Memory needed for triples                  ...      1.50 MB
 -> Final InCoreLevel    ... 5
 -> check shows that triples correction can be computed


Wavefunction type
-----------------
Correlation treatment                      ...      CCSD     
Single excitations                         ... ON
Orbital optimization                       ... OFF
Calculation of Z vector                    ... OFF
Calculation of Brueckner orbitals          ... OFF
Perturbative triple excitations            ... ON
Calculation of F12 correction              ... OFF
Frozen core treatment                      ... chemical core (0 el)
Reference Wavefunction                     ... UHF
  Alpha-MOs occ    :     0 ...    1 (  2 MO's/  2 electrons)
  Beta-MOs occ     :     0 ...    1 (  2 MO's/  2 electrons)
  Alpha-MOs virt   :     2 ...   35 ( 34 MO's              )
  Beta-MOs virt    :     2 ...   35 ( 34 MO's              )
Number of AO's                             ...     36
Number of electrons                        ...      4
Number of correlated electrons             ...      4

Algorithmic settings
--------------------
Integral transformation                    ... AO direct full transformation
K(C) Formation                             ... FULL-MO TRAFO
Maximum number of iterations               ...        50
Convergence tolerance (max. residuum)      ... 1.000e-05
Level shift for amplitude update           ... 2.000e-01
Maximum number of DIIS vectors             ...         7
DIIS turned on at iteration                ...         0
Damping before turning on DIIS             ...     0.500
Damping after turning on DIIS              ...     0.000
Pair specific amplitude update             ... OFF
Natural orbital iterations                 ... OFF
Perturbative natural orbital generation    ... OFF
Printlevel                                 ... 2

Memory handling:
----------------
Maximum memory for working arrays          ...    256 MB
Data storage in matrix containers          ... UNCOMPRESSED
Data type for integral storage             ... DOUBLE
In-Core Storage of quantities:
   Amplitudes+Sigma Vector      ... YES
   J+K operators                ... YES
   DIIS vectors                 ... YES
   3-external integrals         ... YES
   4-external integrals         ... YES


Initializing the integral package          ... done
Warning: reference  - re-canonicalizations have been set to INT 1 VIRT 1

--------------------------
UNRESTRICTED FOCK OPERATOR
--------------------------

Restoring SHARK [2] ... ok
Recanonicalizing the internal orbitals
Recanonicalizing the virtual orbitals
Time needed for Fock operator              ...            0.057 sec
Reference energy                           ...     -5.719981445
Warning: for UHF the TrafoType has to be JK
Warning: for UHF the K(C)-option but must be AOX

-------------------------------
PARTIAL EXCHANGE TRANSFORMATION
-------------------------------

Transformation type                        ... two-operators
Generation of integrals (i,mue|j,nue)      ... ON
Generation of integrals (mue,kappa|nue,tau)... ON
Generation of integrals (i,mue|a,nue)      ... ON
Dimension of the basis                     ...   36
Number of internal alpha-MOs               ...    2 (   0-   1)
Number of internal beta-MOs                ...    2 (   0-   1)
Number of external alpha-MOs               ...   34 (   2-  35)
Number of external beta-MOs                ...   34 (   2-  35)
Pair cutoff                                ... 0.000e+00 Eh
Number of AO pairs in the trafo            ...  666
Total Number of distinct AO pairs          ...  666
Memory devoted for trafo                   ...  256.0 MB 
Max. Number of MO pairs treated together   ... 25890      
Number Format for Storage                  ... Double (8 Byte)
Integral package used                      ... LIBINT

Starting integral evaluation:
    ... done with AO integral generation
Closing buffer AOK[aa] ( 0.00 GB; CompressionRatio= 0.73)
Closing buffer AOK[bb] ( 0.00 GB; CompressionRatio= 0.73)
Closing buffer AOK[ab] ( 0.00 GB; CompressionRatio= 0.73)
Closing buffer AOK[ba] ( 0.00 GB; CompressionRatio= 0.73)
Collecting buffer AOK 
Closing buffer IAAO1[aa] ( 0.00 GB; CompressionRatio= 0.98)
Closing buffer IAAO1[bb] ( 0.00 GB; CompressionRatio= 0.98)
Closing buffer IAAO1[ab] ( 0.00 GB; CompressionRatio= 0.98)
Closing buffer IAAO1[ba] ( 0.00 GB; CompressionRatio= 0.98)
Closing buffer IAAO2[aa] ( 0.00 GB; CompressionRatio= 0.98)
Closing buffer IAAO2[bb] ( 0.00 GB; CompressionRatio= 0.98)
Closing buffer IAAO2[ab] ( 0.00 GB; CompressionRatio= 0.98)
Closing buffer IAAO2[ba] ( 0.00 GB; CompressionRatio= 0.98)
Collecting buffer IAAO 
Closing buffer PRQS    ( 0.01 GB; CompressionRatio= 1.00)
Collecting buffer PRQS 
Number of alpha/alpha MO pairs in trafo    ...    3
Number of beta /beta  MO pairs in trafo    ...    3
Number of alpha/ beta MO pairs in trafo    ...    4
------------------------
SORTING OF (i,mue|j,nue)
------------------------

SORTING OF ALPHA/ALPHA PAIRS
IBATCH = 1 of  1
Closing buffer KAO[aa] ( 0.00 GB; CompressionRatio= 1.00)
Collecting buffer KAO 
SORTING OF BETA /BETA  PAIRS
IBATCH = 1 of  1
Closing buffer KAO[bb] ( 0.00 GB; CompressionRatio= 1.00)
Collecting buffer KAO 
SORTING OF ALPHA/BETA  PAIRS
IBATCH = 1 of  1
Closing buffer KAO[ab] ( 0.00 GB; CompressionRatio= 0.998843930636)
Collecting buffer KAO[ab] 
------------------------
SORTING OF (i,mue|a,nue)
------------------------

Number of alpha/alpha (i,a) pairs in trafo  ...   68
Number of beta /beta  (i,a) pairs in trafo  ...   68
Number of alpha/ beta (i,a) pairs in trafo  ...   68
Number of beta /alpha (i,a) pairs in trafo  ...   68
Setting up the alpha/alpha list             ... done
Setting up the beta /beta  list             ... done
Setting up the alpha/beta  list             ... done
Setting up the beta /alpha list             ... done
    ... Now sorting (i,mue|a,nue)integrals
    ... Integrals (i,b|a,c) will be made on the fly
SORTING OF ALPHA/ALPHA PAIRS
IBATCH = 1 of  1
Closing buffer IPAQ[aa]  0.00 GB; CompressionRatio= 1.00)
SORTING OF BETA /BETA  PAIRS
IBATCH = 1 of  1
Closing buffer IPAQ[bb]( 0.00 GB; CompressionRatio= 1.00)
SORTING OF ALPHA/BETA  PAIRS (NMatSort_ab=68)
IBATCH = 1 of  1
Closing buffer IPAQ[ab]( 0.00 GB; CompressionRatio= 1.00)
SORTING OF BETA/ALPHA  PAIRS
IBATCH = 1 of  1
Closing buffer IPAQ[ba]( 0.00 GB; CompressionRatio= 1.00)
N(AO-Batches) Done                         ...     22591 
N(AO-Batches) Skipped                      ...         0 
N(IJ)-pairs Skipped                        ...         0 
TOTAL TIME for half transformation         ...     0.254 sec
AO-integral generation                     ...     0.014 sec
Half transformation                        ...     0.121 sec
K-integral sorting                         ...     0.039 sec

------------------------------
PARTIAL COULOMB TRANSFORMATION
------------------------------

Transformation type                        ... two-operators
Dimension of the basis                     ...   36
Number of internal alpha-MOs               ...    2 (0-1)
Number of internal beta-MOs                ...    2 (0-1)
Pair cutoff                                ... 0.000e+00 Eh
Number of AO pairs included in the trafo   ...  666
Total Number of distinct AO pairs          ...  666
Memory devoted for trafo                   ...  256.0 MB 
Max. Number of MO pairs treated together   ... 50382      
Max. Number of MOs treated per batch       ... 1399      
Number Format for Storage                  ... Double (8 Byte)
AO-integral source                         ... DIRECT
Integral package used                      ... LIBINT

Starting integral evaluation:
<ss|**>:         3552 b        0 skpd     0.003 s (  0.001 ms/b)
<sp|**>:         4440 b        0 skpd     0.006 s (  0.001 ms/b)
<sd|**>:         1332 b        0 skpd     0.003 s (  0.002 ms/b)
<pp|**>:         1887 b        0 skpd     0.006 s (  0.003 ms/b)
<pd|**>:          888 b        0 skpd     0.005 s (  0.006 ms/b)
<dd|**>:          222 b        0 skpd     0.002 s (  0.007 ms/b)
Closing buffer AOJ[aa] ( 0.00 GB; CompressionRatio= 0.67)
Closing buffer AOJ[bb] ( 0.00 GB; CompressionRatio= 0.67)
Collecting buffer AOJ 
    ... done with AO integral generation
Number of Alpha-MO pairs included          ...    3
Number of Beta-MO pairs included           ...    3
    ... Now sorting integrals
SORTING ALPHA/ALPHA PAIRS
IBATCH = 1 of  1
Closing buffer JAO[aa] ( 0.00 GB; CompressionRatio= 1.00)
SORTING BETA/BETA PAIRS
IBATCH = 1 of  1
Closing buffer JAO[bb] ( 0.00 GB; CompressionRatio= 1.00)
Collecting buffer JAO 
TOTAL TIME for half transformation         ...     0.045 sec
AO-integral generation                     ...     0.008 sec
Half transformation                        ...     0.019 sec
J-integral sorting                         ...     0.005 sec

-------------------------- SECOND HALF TRANSFORMATION --------------------------
Formation of (ij|kl),(ij|ka), (ij|ab)      ... ok (     0.006 sec)
Formation of (ik|jl),(ik|ja), (ia|jb)      ... ok (     0.009 sec)


-----------------------
SPIN UNRESTRICTED GUESS
-----------------------

Spin-components of the MP2 energy:
EMP2(aa)=     -0.000000293
EMP2(bb)=     -0.000000293
EMP2(ab)=     -0.066756503

Initial guess performed in     0.000 sec
E(0)                                       ...     -5.719981445
E(MP2)                                     ...     -0.066757089
Initial E(tot)                             ...     -5.786738534
<T|T>                                      ...      0.010815124
Number of pairs included                   ... 6

------------------------------------------------
                  UHF COUPLED CLUSTER ITERATIONS
------------------------------------------------

Number of amplitudes to be optimized       ...         5848

Iter       E(tot)           E(Corr)          Delta-E          Residual     Time      <S|S>**1/2
  0     -5.786738534     -0.066757089     -0.000000000      0.014277334    0.02      0.000010397
                           *** Turning on DIIS ***
  1     -5.795760004     -0.075778559     -0.009021470      0.004010610    0.02      0.001526810
  2     -5.798358239     -0.078376794     -0.002598235      0.000450198    0.02      0.002419057
  3     -5.798426663     -0.078445218     -0.000068424      0.000154878    0.02      0.002893265
  4     -5.798441045     -0.078459600     -0.000014381      0.000015834    0.02      0.003130547
  5     -5.798441276     -0.078459832     -0.000000232      0.000002116    0.02      0.003151918
               --- The Coupled-Cluster iterations have converged ---

----------------------
COUPLED CLUSTER ENERGY
----------------------

E(0)                                       ...     -5.719981445
E(CORR)                                    ...     -0.078459832
E(TOT)                                     ...     -5.798441276
Singles norm <S|S>**1/2                    ...      0.003151918 ( 0.001575959, 0.001575959)  
T1 diagnostic                              ...      0.001575959                              

------------------
LARGEST AMPLITUDES
------------------
   1a-> 10a   1b-> 10b       0.020917
   0a-> 10a   0b-> 10b       0.020916
   0a-> 11a   1b-> 10b       0.020630
   1a-> 10a   0b-> 11b       0.020630
   0a-> 10a   1b-> 11b       0.020630
   1a-> 11a   0b-> 10b       0.020630
   1a-> 11a   1b-> 11b       0.020359
   0a-> 11a   0b-> 11b       0.020357
   1a-> 10a   0b->  3b       0.012284
   0a->  3a   1b-> 10b       0.012284
   1a->  3a   0b-> 10b       0.012284
   0a-> 10a   1b->  3b       0.012284
   1a->  3a   1b-> 11b       0.012089
   1a-> 11a   1b->  3b       0.012089
   0a->  3a   0b-> 11b       0.012088
   0a-> 11a   0b->  3b       0.012088

----------------------
UHF TRIPLES CORRECTION (Algorithm 1)
----------------------

Multiplier for the singles contribution    ...      1.000000000

SPIN-CASE Alpha-Alpha-Alpha:

SPIN-CASE Beta-Beta-Beta:

SPIN-CASE Alpha-Alpha-Beta:
10% done
20% done
30% done
40% done
50% done
60% done
70% done
80% done
90% done


SPIN-CASE Beta-Beta-Alpha:
10% done
20% done
30% done
40% done
50% done
60% done
70% done
80% done
90% done


Triples Correction (T)                     ...     -0.000000092
    alpha-alpha-alpha ...  0.000000000 ( -0.0%)
    alpha-alpha-beta  ... -0.000000046 ( 50.0%)
    alpha-beta -beta  ... -0.000000046 ( 50.0%)
    beta -beta -beta  ...  0.000000000 ( -0.0%)
Scaling of triples based on CCSD energies (Peterson et al. Molecular Physics 113, 1551 (2015))
E(T*) = f*E(T) where f = E(F12-CCSD)/E(CCSD) 
f = CCSD (with F12)/ CCSD (without F12)    ...      1.000000000
Scaled triples correction (T)              ...     -0.000000092

Final correlation energy                   ...     -0.078459923
E(CCSD)                                    ...     -5.798441276
E(CCSD(T))                                 ...     -5.798441368



        !!!!!!!!!!!!!!!!!!!!!!!!!!!!!!!!!!!!!!!!!!!!!!!!!!!!!!!!!!!!!!!!!!!!!!!!!! 
        !  Warning: Densities are linearized densities                           !
        !!!!!!!!!!!!!!!!!!!!!!!!!!!!!!!!!!!!!!!!!!!!!!!!!!!!!!!!!!!!!!!!!!!!!!!!!! 

NORM  =      1.016219325 sqrt=     1.008077043
W(HF) =      0.984039543
------------------------------------------------------------------------------
                           ORCA POPULATION ANALYSIS
------------------------------------------------------------------------------
Input electron density              ... he2_0_1_ccsd-t_ma-def2-tzvpp_r.mdcip
Input spin density                  ... he2_0_1_ccsd-t_ma-def2-tzvpp_r.mdcir
BaseName (.gbw .S,...)              ... he2_0_1_ccsd-t_ma-def2-tzvpp_r


--------------------------------------------------------------------------------
                                    TIMINGS
--------------------------------------------------------------------------------


Total execution time                   ...        0.739 sec

Fock Matrix Formation                  ...        0.057 sec (  7.7%)
Initial Guess                          ...        0.000 sec (  0.0%)
DIIS Solver                            ...        0.002 sec (  0.2%)
State Vector Update                    ...        0.000 sec (  0.0%)
Sigma-vector construction              ...        0.139 sec ( 18.8%)
  <D|H|D>(2-ext)                       ...        0.003 sec (  1.8% of sigma)
  <D|H|D>(4-ext)                       ...        0.088 sec ( 63.4% of sigma)
  Fock-dressing                        ...        0.018 sec ( 12.8% of sigma)
  (ij|ab),(ia|jb)-dressing             ...        0.012 sec (  8.8% of sigma)
Total Time for computing (T)           ...        0.009 sec (  1.2% of ALL)
  I/O of integral and amplitudes       ...        0.002 sec ( 22.5% of (T))
  External N**7 contributions          ...        0.002 sec ( 18.8% of (T))
  N**6 triples energy contributions    ...        0.003 sec ( 37.0% of (T))


Maximum memory used throughout the entire MDCI-calculation: 63.8 MB

-------------------------   --------------------
FINAL SINGLE POINT ENERGY        -5.798441367957
-------------------------   --------------------

Storing actual gbw-file in he2_0_1_ccsd-t_ma-def2-tzvpp_r.002.gbw ... done

                            ***************************************
                            *     ORCA property calculations      *
                            ***************************************

                                    ---------------------
                                    Active property flags
                                    ---------------------
   (+) Dipole Moment


------------------------------------------------------------------------------
                       ORCA ELECTRIC PROPERTIES CALCULATION
------------------------------------------------------------------------------

Dipole Moment Calculation                       ... on
Quadrupole Moment Calculation                   ... off
Polarizability Calculation                      ... off
GBWName                                         ... he2_0_1_ccsd-t_ma-def2-tzvpp_r.gbw
Electron density                                ... he2_0_1_ccsd-t_ma-def2-tzvpp_r.scfp
The origin for moment calculation is the CENTER OF MASS  = ( 4.960531,  0.000000  0.000000)

-------------
DIPOLE MOMENT
-------------
                                X             Y             Z
Electronic contribution:     -0.00000      -0.00000      -0.00000
Nuclear contribution   :      0.00000       0.00000       0.00000
                        -----------------------------------------
Total Dipole Moment    :     -0.00000      -0.00000      -0.00000
                        -----------------------------------------
Magnitude (a.u.)       :      0.00000
Magnitude (Debye)      :      0.00000



--------------------
Rotational spectrum 
--------------------
 
Rotational constants in cm-1:     0.000000     0.305578     0.305578 
Rotational constants in MHz :     0.000000  9161.010959  9161.010959 

 Dipole components along the rotational axes: 
x,y,z [a.u.] :    -0.000000    -0.000000    -0.000000 
x,y,z [Debye]:    -0.000000    -0.000000    -0.000000 

 

                           *** MDCI DENSITY ***

[...]
-------------------------------

Transformation type                        ... two-operators
Generation of integrals (i,mue|j,nue)      ... ON
Generation of integrals (mue,kappa|nue,tau)... ON
Generation of integrals (i,mue|a,nue)      ... ON
Dimension of the basis                     ...   36
Number of internal alpha-MOs               ...    2 (   0-   1)
Number of internal beta-MOs                ...    2 (   0-   1)
Number of external alpha-MOs               ...   34 (   2-  35)
Number of external beta-MOs                ...   34 (   2-  35)
Pair cutoff                                ... 0.000e+00 Eh
Number of AO pairs in the trafo            ...  666
Total Number of distinct AO pairs          ...  666
Memory devoted for trafo                   ...  256.0 MB 
Max. Number of MO pairs treated together   ... 25890      
Number Format for Storage                  ... Double (8 Byte)
Integral package used                      ... LIBINT

Starting integral evaluation:
    ... done with AO integral generation
Closing buffer AOK[aa] ( 0.00 GB; CompressionRatio= 0.73)
Closing buffer AOK[bb] ( 0.00 GB; CompressionRatio= 0.73)
Closing buffer AOK[ab] ( 0.00 GB; CompressionRatio= 0.73)
Closing buffer AOK[ba] ( 0.00 GB; CompressionRatio= 0.73)
Collecting buffer AOK 
Closing buffer IAAO1[aa] ( 0.00 GB; CompressionRatio= 0.98)
Closing buffer IAAO1[bb] ( 0.00 GB; CompressionRatio= 0.98)
Closing buffer IAAO1[ab] ( 0.00 GB; CompressionRatio= 0.98)
Closing buffer IAAO1[ba] ( 0.00 GB; CompressionRatio= 0.98)
Closing buffer IAAO2[aa] ( 0.00 GB; CompressionRatio= 0.98)
Closing buffer IAAO2[bb] ( 0.00 GB; CompressionRatio= 0.98)
Closing buffer IAAO2[ab] ( 0.00 GB; CompressionRatio= 0.98)
Closing buffer IAAO2[ba] ( 0.00 GB; CompressionRatio= 0.98)
Collecting buffer IAAO 
Closing buffer PRQS    ( 0.01 GB; CompressionRatio= 1.00)
Collecting buffer PRQS 
Number of alpha/alpha MO pairs in trafo    ...    3
Number of beta /beta  MO pairs in trafo    ...    3
Number of alpha/ beta MO pairs in trafo    ...    4
------------------------
SORTING OF (i,mue|j,nue)
------------------------

SORTING OF ALPHA/ALPHA PAIRS
IBATCH = 1 of  1
Closing buffer KAO[aa] ( 0.00 GB; CompressionRatio= 1.00)
Collecting buffer KAO 
SORTING OF BETA /BETA  PAIRS
IBATCH = 1 of  1
Closing buffer KAO[bb] ( 0.00 GB; CompressionRatio= 1.00)
Collecting buffer KAO 
SORTING OF ALPHA/BETA  PAIRS
IBATCH = 1 of  1
Closing buffer KAO[ab] ( 0.00 GB; CompressionRatio= 0.998843930636)
Collecting buffer KAO[ab] 
------------------------
SORTING OF (i,mue|a,nue)
------------------------

Number of alpha/alpha (i,a) pairs in trafo  ...   68
Number of beta /beta  (i,a) pairs in trafo  ...   68
Number of alpha/ beta (i,a) pairs in trafo  ...   68
Number of beta /alpha (i,a) pairs in trafo  ...   68
Setting up the alpha/alpha list             ... done
Setting up the beta /beta  list             ... done
Setting up the alpha/beta  list             ... done
Setting up the beta /alpha list             ... done
    ... Now sorting (i,mue|a,nue)integrals
    ... Integrals (i,b|a,c) will be made on the fly
SORTING OF ALPHA/ALPHA PAIRS
IBATCH = 1 of  1
Closing buffer IPAQ[aa]  0.00 GB; CompressionRatio= 1.00)
SORTING OF BETA /BETA  PAIRS
IBATCH = 1 of  1
Closing buffer IPAQ[bb]( 0.00 GB; CompressionRatio= 1.00)
SORTING OF ALPHA/BETA  PAIRS (NMatSort_ab=68)
IBATCH = 1 of  1
Closing buffer IPAQ[ab]( 0.00 GB; CompressionRatio= 1.00)
SORTING OF BETA/ALPHA  PAIRS
IBATCH = 1 of  1
Closing buffer IPAQ[ba]( 0.00 GB; CompressionRatio= 1.00)
N(AO-Batches) Done                         ...     10125 
N(AO-Batches) Skipped                      ...         0 
N(IJ)-pairs Skipped                        ...         0 
TOTAL TIME for half transformation         ...     0.247 sec
AO-integral generation                     ...     0.008 sec
Half transformation                        ...     0.121 sec
K-integral sorting                         ...     0.039 sec

------------------------------
PARTIAL COULOMB TRANSFORMATION
------------------------------

Transformation type                        ... two-operators
Dimension of the basis                     ...   36
Number of internal alpha-MOs               ...    2 (0-1)
Number of internal beta-MOs                ...    2 (0-1)
Pair cutoff                                ... 0.000e+00 Eh
Number of AO pairs included in the trafo   ...  610
Total Number of distinct AO pairs          ...  666
Memory devoted for trafo                   ...  256.0 MB 
Max. Number of MO pairs treated together   ... 50382      
Max. Number of MOs treated per batch       ... 1399      
Number Format for Storage                  ... Double (8 Byte)
AO-integral source                         ... DIRECT
Integral package used                      ... LIBINT

Starting integral evaluation:
<ss|**>:         1771 b        0 skpd     0.003 s (  0.001 ms/b)
<sp|**>:         2002 b        0 skpd     0.004 s (  0.002 ms/b)
<sd|**>:          616 b        0 skpd     0.002 s (  0.003 ms/b)
<pp|**>:          924 b        0 skpd     0.004 s (  0.004 ms/b)
<pd|**>:          462 b        0 skpd     0.004 s (  0.009 ms/b)
<dd|**>:          154 b        0 skpd     0.002 s (  0.010 ms/b)
Closing buffer AOJ[aa] ( 0.00 GB; CompressionRatio= 0.67)
Closing buffer AOJ[bb] ( 0.00 GB; CompressionRatio= 0.67)
Collecting buffer AOJ 
    ... done with AO integral generation
Number of Alpha-MO pairs included          ...    3
Number of Beta-MO pairs included           ...    3
    ... Now sorting integrals
SORTING ALPHA/ALPHA PAIRS
IBATCH = 1 of  1
Closing buffer JAO[aa] ( 0.00 GB; CompressionRatio= 1.00)
SORTING BETA/BETA PAIRS
IBATCH = 1 of  1
Closing buffer JAO[bb] ( 0.00 GB; CompressionRatio= 1.00)
Collecting buffer JAO 
TOTAL TIME for half transformation         ...     0.036 sec
AO-integral generation                     ...     0.004 sec
Half transformation                        ...     0.014 sec
J-integral sorting                         ...     0.006 sec

-------------------------- SECOND HALF TRANSFORMATION --------------------------
Formation of (ij|kl),(ij|ka), (ij|ab)      ... ok (     0.006 sec)
Formation of (ik|jl),(ik|ja), (ia|jb)      ... ok (     0.010 sec)


-----------------------
SPIN UNRESTRICTED GUESS
-----------------------

Spin-components of the MP2 energy:
EMP2(aa)=     -0.000000006
EMP2(bb)=     -0.000000006
EMP2(ab)=     -0.066755889

Initial guess performed in     0.000 sec
E(0)                                       ...     -5.719981353
E(MP2)                                     ...     -0.066755901
Initial E(tot)                             ...     -5.786737254
<T|T>                                      ...      0.010814809
Number of pairs included                   ... 6

------------------------------------------------
                  UHF COUPLED CLUSTER ITERATIONS
------------------------------------------------

Number of amplitudes to be optimized       ...         5848

Iter       E(tot)           E(Corr)          Delta-E          Residual     Time      <S|S>**1/2
  0     -5.786737254     -0.066755901      0.000000000      0.014172900    0.02      0.000000000
                           *** Turning on DIIS ***
  1     -5.795758553     -0.075777200     -0.009021299      0.003973904    0.03      0.001526135
  2     -5.798356749     -0.078375395     -0.002598195      0.000444762    0.03      0.002417414
  3     -5.798425162     -0.078443809     -0.000068413      0.000154270    0.03      0.002891210
  4     -5.798439538     -0.078458184     -0.000014376      0.000015322    0.03      0.003128364
  5     -5.798439769     -0.078458416     -0.000000232      0.000001985    0.03      0.003149743
               --- The Coupled-Cluster iterations have converged ---

----------------------
COUPLED CLUSTER ENERGY
----------------------

E(0)                                       ...     -5.719981353
E(CORR)                                    ...     -0.078458416
E(TOT)                                     ...     -5.798439769
Singles norm <S|S>**1/2                    ...      0.003149743 ( 0.001574872, 0.001574872)  
T1 diagnostic                              ...      0.001574872                              

------------------
LARGEST AMPLITUDES
------------------
   1a-> 10a   1b-> 10b       0.020657
   0a-> 10a   0b-> 10b       0.020657
   1a-> 10a   0b-> 11b       0.020657
   0a-> 11a   1b-> 10b       0.020657
   1a-> 11a   0b-> 10b       0.020657
   0a-> 10a   1b-> 11b       0.020657
   0a-> 11a   0b-> 11b       0.020657
   1a-> 11a   1b-> 11b       0.020657
   0a->  3a   1b-> 10b       0.011936
   1a-> 10a   0b->  3b       0.011936
   0a-> 10a   1b->  3b       0.011936
   1a->  3a   0b-> 10b       0.011936
   0a->  3a   0b-> 11b       0.011936
   0a-> 11a   0b->  3b       0.011936
   1a-> 11a   1b->  3b       0.011936
   1a->  3a   1b-> 11b       0.011936

----------------------
UHF TRIPLES CORRECTION (Algorithm 1)
----------------------

Multiplier for the singles contribution    ...      1.000000000

SPIN-CASE Alpha-Alpha-Alpha:

SPIN-CASE Beta-Beta-Beta:

SPIN-CASE Alpha-Alpha-Beta:
10% done
20% done
30% done
40% done
50% done
60% done
70% done
80% done
90% done


SPIN-CASE Beta-Beta-Alpha:
10% done
20% done
30% done
40% done
50% done
60% done
70% done
80% done
90% done


Triples Correction (T)                     ...     -0.000000002
    alpha-alpha-alpha ...  0.000000000 ( -0.0%)
    alpha-alpha-beta  ... -0.000000001 ( 50.0%)
    alpha-beta -beta  ... -0.000000001 ( 50.0%)
    beta -beta -beta  ...  0.000000000 ( -0.0%)
Scaling of triples based on CCSD energies (Peterson et al. Molecular Physics 113, 1551 (2015))
E(T*) = f*E(T) where f = E(F12-CCSD)/E(CCSD) 
f = CCSD (with F12)/ CCSD (without F12)    ...      1.000000000
Scaled triples correction (T)              ...     -0.000000002

Final correlation energy                   ...     -0.078458418
E(CCSD)                                    ...     -5.798439769
E(CCSD(T))                                 ...     -5.798439771



        !!!!!!!!!!!!!!!!!!!!!!!!!!!!!!!!!!!!!!!!!!!!!!!!!!!!!!!!!!!!!!!!!!!!!!!!!! 
        !  Warning: Densities are linearized densities                           !
        !!!!!!!!!!!!!!!!!!!!!!!!!!!!!!!!!!!!!!!!!!!!!!!!!!!!!!!!!!!!!!!!!!!!!!!!!! 

NORM  =      1.016218814 sqrt=     1.008076790
W(HF) =      0.984040038
------------------------------------------------------------------------------
                           ORCA POPULATION ANALYSIS
------------------------------------------------------------------------------
Input electron density              ... he2_0_1_ccsd-t_ma-def2-tzvpp_r.mdcip
Input spin density                  ... he2_0_1_ccsd-t_ma-def2-tzvpp_r.mdcir
BaseName (.gbw .S,...)              ... he2_0_1_ccsd-t_ma-def2-tzvpp_r


--------------------------------------------------------------------------------
                                    TIMINGS
--------------------------------------------------------------------------------


Total execution time                   ...        0.751 sec

Fock Matrix Formation                  ...        0.053 sec (  7.0%)
Initial Guess                          ...        0.000 sec (  0.0%)
DIIS Solver                            ...        0.002 sec (  0.2%)
State Vector Update                    ...        0.000 sec (  0.0%)
Sigma-vector construction              ...        0.153 sec ( 20.4%)
  <D|H|D>(2-ext)                       ...        0.003 sec (  1.7% of sigma)
  <D|H|D>(4-ext)                       ...        0.110 sec ( 71.8% of sigma)
  Fock-dressing                        ...        0.008 sec (  5.1% of sigma)
  (ij|ab),(ia|jb)-dressing             ...        0.012 sec (  7.8% of sigma)
Total Time for computing (T)           ...        0.009 sec (  1.2% of ALL)
  I/O of integral and amplitudes       ...        0.002 sec ( 21.3% of (T))
  External N**7 contributions          ...        0.002 sec ( 18.7% of (T))
  N**6 triples energy contributions    ...        0.003 sec ( 37.3% of (T))


Maximum memory used throughout the entire MDCI-calculation: 63.8 MB

-------------------------   --------------------
FINAL SINGLE POINT ENERGY        -5.798439771344
-------------------------   --------------------

Storing actual gbw-file in he2_0_1_ccsd-t_ma-def2-tzvpp_r.021.gbw ... done

                            ***************************************
                            *     ORCA property calculations      *
                            ***************************************

                                    ---------------------
                                    Active property flags
                                    ---------------------
   (+) Dipole Moment


------------------------------------------------------------------------------
                       ORCA ELECTRIC PROPERTIES CALCULATION
------------------------------------------------------------------------------

Dipole Moment Calculation                       ... on
Quadrupole Moment Calculation                   ... off
Polarizability Calculation                      ... off
GBWName                                         ... he2_0_1_ccsd-t_ma-def2-tzvpp_r.gbw
Electron density                                ... he2_0_1_ccsd-t_ma-def2-tzvpp_r.scfp
The origin for moment calculation is the CENTER OF MASS  = ( 9.448631,  0.000000  0.000000)

-------------
DIPOLE MOMENT
-------------
                                X             Y             Z
Electronic contribution:     -0.00000       0.00000       0.00000
Nuclear contribution   :      0.00000       0.00000       0.00000
                        -----------------------------------------
Total Dipole Moment    :     -0.00000       0.00000       0.00000
                        -----------------------------------------
Magnitude (a.u.)       :      0.00000
Magnitude (Debye)      :      0.00000



--------------------
Rotational spectrum 
--------------------
 
Rotational constants in cm-1:     0.000000     0.084225     0.084225 
Rotational constants in MHz :     0.000000  2525.003646  2525.003646 

 Dipole components along the rotational axes: 
x,y,z [a.u.] :    -0.000000     0.000000     0.000000 
x,y,z [Debye]:    -0.000000     0.000000     0.000000 

 

                           *** MDCI DENSITY ***

------------------------------------------------------------------------------
                       ORCA ELECTRIC PROPERTIES CALCULATION
------------------------------------------------------------------------------

Dipole Moment Calculation                       ... on
Quadrupole Moment Calculation                   ... off
Polarizability Calculation                      ... off
GBWName                                         ... he2_0_1_ccsd-t_ma-def2-tzvpp_r.gbw
Electron density                                ... he2_0_1_ccsd-t_ma-def2-tzvpp_r.mdcip
The origin for moment calculation is the CENTER OF MASS  = ( 9.448631,  0.000000  0.000000)

-------------
DIPOLE MOMENT
-------------
                                X             Y             Z
Electronic contribution:     -0.00000       0.00000       0.00000
Nuclear contribution   :      0.00000       0.00000       0.00000
                        -----------------------------------------
Total Dipole Moment    :     -0.00000       0.00000       0.00000
                        -----------------------------------------
Magnitude (a.u.)       :      0.00000
Magnitude (Debye)      :      0.00000



--------------------
Rotational spectrum 
--------------------
 
Rotational constants in cm-1:     0.000000     0.084225     0.084225 
Rotational constants in MHz :     0.000000  2525.003646  2525.003646 

 Dipole components along the rotational axes: 
x,y,z [a.u.] :    -0.000000     0.000000     0.000000 
x,y,z [Debye]:    -0.000000     0.000000     0.000000 

 
                              **** TRAJECTORY DONE ***

                         SUMMARY OF THE CALCULATED SURFACE

------------------
TRAJECTORY RESULTS
------------------

Column   1: RHEHE

The Calculated Surface using the 'Actual Energy'
   5.00000000  -5.79844205
   5.25000000  -5.79844137
   5.50000000  -5.79844092
   5.75000000  -5.79844062
   6.00000000  -5.79844041
   6.25000000  -5.79844026
   6.50000000  -5.79844015
   6.75000000  -5.79844007
   7.00000000  -5.79844000
   7.25000000  -5.79843995
   7.50000000  -5.79843991
   7.75000000  -5.79843988
   8.00000000  -5.79843986
   8.25000000  -5.79843984
   8.50000000  -5.79843982
   8.75000000  -5.79843981
   9.00000000  -5.79843980
   9.25000000  -5.79843979
   9.50000000  -5.79843978
   9.75000000  -5.79843978
  10.00000000  -5.79843977

                        *******************************
                        *   FIT OF THE ACT-ENERGY PES *
                        *******************************
-------------------------------
POTENTIAL ENERGY SURFACE =   0
-------------------------------

The Calculated Surface using the SCF energy
   5.00000000  -5.71998157
   5.25000000  -5.71998142
   5.50000000  -5.71998138
   5.75000000  -5.71998136
   6.00000000  -5.71998135
   6.25000000  -5.71998135
   6.50000000  -5.71998135
   6.75000000  -5.71998135
   7.00000000  -5.71998135
   7.25000000  -5.71998135
   7.50000000  -5.71998135
   7.75000000  -5.71998135
   8.00000000  -5.71998135
   8.25000000  -5.71998135
   8.50000000  -5.71998135
   8.75000000  -5.71998135
   9.00000000  -5.71998135
   9.25000000  -5.71998135
   9.50000000  -5.71998135
   9.75000000  -5.71998135
  10.00000000  -5.71998135

                        *******************************
                        *       FIT OF THE SCF PES    *
                        *******************************
-------------------------------
POTENTIAL ENERGY SURFACE =   0
-------------------------------

The Calculated Surface using the MDCI energy
   5.00000000  -5.79844205
   5.25000000  -5.79844137
   5.50000000  -5.79844092
   5.75000000  -5.79844062
   6.00000000  -5.79844041
   6.25000000  -5.79844026
   6.50000000  -5.79844015
   6.75000000  -5.79844007
   7.00000000  -5.79844000
   7.25000000  -5.79843995
   7.50000000  -5.79843991
   7.75000000  -5.79843988
   8.00000000  -5.79843986
   8.25000000  -5.79843984
   8.50000000  -5.79843982
   8.75000000  -5.79843981
   9.00000000  -5.79843980
   9.25000000  -5.79843979
   9.50000000  -5.79843978
   9.75000000  -5.79843978
  10.00000000  -5.79843977

                        *******************************
                        *      FIT OF THE MDCI PES    *
                        *******************************
-------------------------------
POTENTIAL ENERGY SURFACE =   0
-------------------------------

The Calculated Surface using the MDCI energy minus triple correction
   5.00000000  -5.79844193
   5.25000000  -5.79844128
   5.50000000  -5.79844085
   5.75000000  -5.79844057
   6.00000000  -5.79844037
   6.25000000  -5.79844023
   6.50000000  -5.79844013
   6.75000000  -5.79844005
   7.00000000  -5.79843999
   7.25000000  -5.79843994
   7.50000000  -5.79843990
   7.75000000  -5.79843987
   8.00000000  -5.79843985
   8.25000000  -5.79843983
   8.50000000  -5.79843982
   8.75000000  -5.79843981
   9.00000000  -5.79843980
   9.25000000  -5.79843979
   9.50000000  -5.79843978
   9.75000000  -5.79843977
  10.00000000  -5.79843977

                        *******************************
                        *      FIT OF THE MDCI1 PES   *
                        *******************************
-------------------------------
POTENTIAL ENERGY SURFACE =   0
-------------------------------


Timings for individual modules:

Sum of individual times         ...       24.786 sec (=   0.413 min)
GTO integral calculation        ...        3.154 sec (=   0.053 min)  12.7 %
SCF iterations                  ...        4.341 sec (=   0.072 min)  17.5 %
MDCI module                     ...       17.290 sec (=   0.288 min)  69.8 %
                             ****ORCA TERMINATED NORMALLY****
TOTAL RUN TIME: 0 days 0 hours 0 minutes 28 seconds 971 msec
