
                                 *****************
                                 * O   R   C   A *
                                 *****************

                                            #,                                       
                                            ###                                      
                                            ####                                     
                                            #####                                    
                                            ######                                   
                                           ########,                                 
                                     ,,################,,,,,                         
                               ,,#################################,,                 
                          ,,##########################################,,             
                       ,#########################################, ''#####,          
                    ,#############################################,,   '####,        
                  ,##################################################,,,,####,       
                ,###########''''           ''''###############################       
              ,#####''   ,,,,##########,,,,          '''####'''          '####       
            ,##' ,,,,###########################,,,                        '##       
           ' ,,###''''                  '''############,,,                           
         ,,##''                                '''############,,,,        ,,,,,,###''
      ,#''                                            '''#######################'''  
     '                                                          ''''####''''         
             ,#######,   #######,   ,#######,      ##                                
            ,#'     '#,  ##    ##  ,#'     '#,    #''#        ######   ,####,        
            ##       ##  ##   ,#'  ##            #'  '#       #        #'  '#        
            ##       ##  #######   ##           ,######,      #####,   #    #        
            '#,     ,#'  ##    ##  '#,     ,#' ,#      #,         ##   #,  ,#        
             '#######'   ##     ##  '#######'  #'      '#     #####' # '####'        



                  #######################################################
                  #                        -***-                        #
                  #          Department of theory and spectroscopy      #
                  #    Directorship and core code : Frank Neese         #
                  #        Max Planck Institute fuer Kohlenforschung    #
                  #                Kaiser Wilhelm Platz 1               #
                  #                 D-45470 Muelheim/Ruhr               #
                  #                      Germany                        #
                  #                                                     #
                  #                  All rights reserved                #
                  #                        -***-                        #
                  #######################################################


                         Program Version 5.0.2 -  RELEASE  -


 With contributions from (in alphabetic order):
   Daniel Aravena         : Magnetic Suceptibility
   Michael Atanasov       : Ab Initio Ligand Field Theory (pilot matlab implementation)
   Alexander A. Auer      : GIAO ZORA, VPT2 properties, NMR spectrum
   Ute Becker             : Parallelization
   Giovanni Bistoni       : ED, misc. LED, open-shell LED, HFLD
   Martin Brehm           : Molecular dynamics
   Dmytro Bykov           : SCF Hessian
   Vijay G. Chilkuri      : MRCI spin determinant printing, contributions to CSF-ICE
   Dipayan Datta          : RHF DLPNO-CCSD density
   Achintya Kumar Dutta   : EOM-CC, STEOM-CC
   Dmitry Ganyushin       : Spin-Orbit,Spin-Spin,Magnetic field MRCI
   Miquel Garcia          : C-PCM and meta-GGA Hessian, CC/C-PCM, Gaussian charge scheme
   Yang Guo               : DLPNO-NEVPT2, F12-NEVPT2, CIM, IAO-localization
   Andreas Hansen         : Spin unrestricted coupled pair/coupled cluster methods
   Benjamin Helmich-Paris : MC-RPA, TRAH-SCF, COSX integrals
   Lee Huntington         : MR-EOM, pCC
   Robert Izsak           : Overlap fitted RIJCOSX, COSX-SCS-MP3, EOM
   Marcus Kettner         : VPT2
   Christian Kollmar      : KDIIS, OOCD, Brueckner-CCSD(T), CCSD density, CASPT2, CASPT2-K
   Simone Kossmann        : Meta GGA functionals, TD-DFT gradient, OOMP2, MP2 Hessian
   Martin Krupicka        : Initial AUTO-CI
   Lucas Lang             : DCDCAS
   Marvin Lechner         : AUTO-CI (C++ implementation), FIC-MRCC
   Dagmar Lenk            : GEPOL surface, SMD
   Dimitrios Liakos       : Extrapolation schemes; Compound Job, initial MDCI parallelization
   Dimitrios Manganas     : Further ROCIS development; embedding schemes
   Dimitrios Pantazis     : SARC Basis sets
   Anastasios Papadopoulos: AUTO-CI, single reference methods and gradients
   Taras Petrenko         : DFT Hessian,TD-DFT gradient, ASA, ECA, R-Raman, ABS, FL, XAS/XES, NRVS
   Peter Pinski           : DLPNO-MP2, DLPNO-MP2 Gradient
   Christoph Reimann      : Effective Core Potentials
   Marius Retegan         : Local ZFS, SOC
   Christoph Riplinger    : Optimizer, TS searches, QM/MM, DLPNO-CCSD(T), (RO)-DLPNO pert. Triples
   Tobias Risthaus        : Range-separated hybrids, TD-DFT gradient, RPA, STAB
   Michael Roemelt        : Original ROCIS implementation
   Masaaki Saitow         : Open-shell DLPNO-CCSD energy and density
   Barbara Sandhoefer     : DKH picture change effects
   Avijit Sen             : IP-ROCIS
   Kantharuban Sivalingam : CASSCF convergence, NEVPT2, FIC-MRCI
   Bernardo de Souza      : ESD, SOC TD-DFT
   Georgi Stoychev        : AutoAux, RI-MP2 NMR, DLPNO-MP2 response
   Willem Van den Heuvel  : Paramagnetic NMR
   Boris Wezisla          : Elementary symmetry handling
   Frank Wennmohs         : Technical directorship


 We gratefully acknowledge several colleagues who have allowed us to
 interface, adapt or use parts of their codes:
   Stefan Grimme, W. Hujo, H. Kruse, P. Pracht,  : VdW corrections, initial TS optimization,
                  C. Bannwarth, S. Ehlert          DFT functionals, gCP, sTDA/sTD-DF
   Ed Valeev, F. Pavosevic, A. Kumar             : LibInt (2-el integral package), F12 methods
   Garnet Chan, S. Sharma, J. Yang, R. Olivares  : DMRG
   Ulf Ekstrom                                   : XCFun DFT Library
   Mihaly Kallay                                 : mrcc  (arbitrary order and MRCC methods)
   Jiri Pittner, Ondrej Demel                    : Mk-CCSD
   Frank Weinhold                                : gennbo (NPA and NBO analysis)
   Christopher J. Cramer and Donald G. Truhlar   : smd solvation model
   Lars Goerigk                                  : TD-DFT with DH, B97 family of functionals
   V. Asgeirsson, H. Jonsson                     : NEB implementation
   FAccTs GmbH                                   : IRC, NEB, NEB-TS, DLPNO-Multilevel, CI-OPT
                                                   MM, QMMM, 2- and 3-layer-ONIOM, Crystal-QMMM,
                                                   LR-CPCM, SF, NACMEs, symmetry and pop. for TD-DFT,
                                                   nearIR, NL-DFT gradient (VV10), updates on ESD,
                                                   ML-optimized integration grids
   S Lehtola, MJT Oliveira, MAL Marques          : LibXC Library
   Liviu Ungur et al                             : ANISO software


 Your calculation uses the libint2 library for the computation of 2-el integrals
 For citations please refer to: http://libint.valeyev.net

 Your ORCA version has been built with support for libXC version: 5.1.0
 For citations please refer to: https://tddft.org/programs/libxc/

 This ORCA versions uses:
   CBLAS   interface :  Fast vector & matrix operations
   LAPACKE interface :  Fast linear algebra routines
   SCALAPACK package :  Parallel linear algebra routines
   Shared memory     :  Shared parallel matrices
   BLAS/LAPACK       :  OpenBLAS 0.3.15  USE64BITINT DYNAMIC_ARCH NO_AFFINITY SkylakeX SINGLE_THREADED
        Core in use  :  SkylakeX
   Copyright (c) 2011-2014, The OpenBLAS Project


XCFun DFT library Copyright 2009-2010 Ulf Ekstrom and contributors.
See http://admol.org/xcfun for more information.
This is free software; see the source code for copying conditions.
There is ABSOLUTELY NO WARRANTY; not even for MERCHANTABILITY or FITNESS FOR A PARTICULAR PURPOSE.
For details see the documentation.
Scientific users of this library should cite U. Ekstrom, L. Visscher, R. Bast, A. J. Thorvaldsen and K. Ruud;
J.Chem.Theor.Comp. 2010, DOI: 10.1021/ct100117s
XCFun Version 0.99 

================================================================================

----- Orbital basis set information -----
Your calculation utilizes the basis: ma-def2-TZVPP
   F. Weigend and R. Ahlrichs, Phys. Chem. Chem. Phys. 7, 3297 (2005).
   J. Zheng, X. Xu and D. G. Truhlar, Theor. Chem. Acc. 128, 295 (2011).

----- AuxJ basis set information -----
Your calculation utilizes the auxiliary basis: def2/J
   F. Weigend, Phys. Chem. Chem. Phys. 8, 1057 (2006).

================================================================================
                                        WARNINGS
                       Please study these warnings very carefully!
================================================================================


INFO   : the flag for use of the SHARK integral package has been found!

================================================================================
                                       INPUT FILE
================================================================================
NAME = he2_0_1_wb97x_ma-def2-tzvpp_r.inp
|  1> !uks wb97x ma-def2-tzvpp tightscf
|  2> 
|  3> %paras
|  4>   rHeHe = 5,10,21
|  5> end
|  6> 
|  7> %scf
|  8>   maxiter 250
|  9> end
| 10> 
| 11> *int 0 1
| 12> he 0 0 0 0 0 0
| 13> he 1 0 0 {rHeHe} 0 0
| 14> *
| 15> 
| 16>                          ****END OF INPUT****
================================================================================

                       ******************************
                       * Parameter Scan Calculation *
                       ******************************

Trajectory settings:
    -> SCF surface will be mapped

There are 1 parameter(s) to be scanned
         RHEHE: range=   5.00000000 ..  10.00000000  steps=   21
There will be   21 energy evaluations


         *************************************************************
                                TRAJECTORY STEP   1
              RHEHE  :   5.00000000
         *************************************************************
---------------------------------
CARTESIAN COORDINATES (ANGSTROEM)
---------------------------------
  He     0.000000    0.000000    0.000000
  He     5.000000    0.000000    0.000000

----------------------------
CARTESIAN COORDINATES (A.U.)
----------------------------
  NO LB      ZA    FRAG     MASS         X           Y           Z
   0 He    2.0000    0     4.003    0.000000    0.000000    0.000000
   1 He    2.0000    0     4.003    9.448631    0.000000    0.000000

--------------------------------
INTERNAL COORDINATES (ANGSTROEM)
--------------------------------
 He     0   0   0     0.000000000000     0.00000000     0.00000000
 He     1   0   0     5.000000000000     0.00000000     0.00000000

---------------------------
INTERNAL COORDINATES (A.U.)
---------------------------
 He     0   0   0     0.000000000000     0.00000000     0.00000000
 He     1   0   0     9.448630669606     0.00000000     0.00000000

---------------------
BASIS SET INFORMATION
---------------------
There are 1 groups of distinct atoms

 Group   1 Type He  : 6s3p1d contracted to 4s3p1d pattern {3111/111/1}

Atom   0He   basis set group =>   1
Atom   1He   basis set group =>   1
---------------------------------
AUXILIARY/J BASIS SET INFORMATION
---------------------------------
There are 1 groups of distinct atoms

 Group   1 Type He  : 5s2p1d contracted to 3s1p1d pattern {311/2/1}

Atom   0He   basis set group =>   1
Atom   1He   basis set group =>   1
------------------------------------------------------------------------------
                           ORCA GTO INTEGRAL CALCULATION
                           -- RI-GTO INTEGRALS CHOSEN --
------------------------------------------------------------------------------
------------------------------------------------------------------------------
                   ___                                                        
                  /   \      - P O W E R E D   B Y -                         
                 /     \                                                     
                 |  |  |   _    _      __       _____    __    __             
                 |  |  |  | |  | |    /  \     |  _  \  |  |  /  |          
                  \  \/   | |  | |   /    \    | | | |  |  | /  /          
                 / \  \   | |__| |  /  /\  \   | |_| |  |  |/  /          
                |  |  |   |  __  | /  /__\  \  |    /   |      \           
                |  |  |   | |  | | |   __   |  |    \   |  |\   \          
                \     /   | |  | | |  |  |  |  | |\  \  |  | \   \       
                 \___/    |_|  |_| |__|  |__|  |_| \__\ |__|  \__/        
                                                                              
                      - O R C A' S   B I G   F R I E N D -                    
                                      &                                       
                       - I N T E G R A L  F E E D E R -                       
                                                                              
 v1 FN, 2020, v2 2021                                                         
------------------------------------------------------------------------------


Reading SHARK input file he2_0_1_wb97x_ma-def2-tzvpp_r.SHARKINP.tmp ... ok
----------------------
SHARK INTEGRAL PACKAGE
----------------------

Number of atoms                             ...      2
Number of basis functions                   ...     36
Number of shells                            ...     16
Maximum angular momentum                    ...      2
Integral batch strategy                     ... SHARK/LIBINT Hybrid
RI-J (if used) integral strategy            ... SPLIT-RIJ (Revised 2003 algorithm where possible)
Printlevel                                  ...      1
Contraction scheme used                     ... SEGMENTED contraction
Coulomb Range Separation                    ... NOT USED
Exchange Range Separation                   ... Long Range
   Mu parameter                             ...  0.300000
   Scaling (regular/separated)              ...  0.157706  0.842294
Finite Nucleus Model                        ... NOT USED
Auxiliary Coulomb fitting basis             ... AVAILABLE
   # of basis functions in Aux-J            ...     22
   # of shells in Aux-J                     ...     10
   Maximum angular momentum in Aux-J        ...      2
Auxiliary J/K fitting basis                 ... NOT available
Auxiliary Correlation fitting basis         ... NOT available
Auxiliary 'external' fitting basis          ... NOT available
Integral threshold                          ...     2.500000e-11
Primitive cut-off                           ...     2.500000e-12
Primitive pair pre-selection threshold      ...     2.500000e-12

Calculating pre-screening integrals         ... done (  0.0 sec) Dimension = 16
Organizing shell pair data                  ... done (  0.0 sec)
Shell pair information
Total number of shell pairs                 ...       136
Shell pairs after pre-screening             ...       111
Total number of primitive shell pairs       ...       216
Primitive shell pairs kept                  ...       167
          la=0 lb=0:     32 shell pairs
          la=1 lb=0:     40 shell pairs
          la=1 lb=1:     17 shell pairs
          la=2 lb=0:     12 shell pairs
          la=2 lb=1:      8 shell pairs
          la=2 lb=2:      2 shell pairs

Calculating one electron integrals          ... done (  0.0 sec)
Calculating RI/J V-Matrix + Cholesky decomp.... done (  0.0 sec)
Calculating Nuclear repulsion               ... done (  0.0 sec) ENN=      0.423341766640 Eh

SHARK setup successfully completed in   0.1 seconds

Maximum memory used throughout the entire GTOINT-calculation: 6.1 MB
-------------------------------------------------------------------------------
                                 ORCA SCF
-------------------------------------------------------------------------------

------------
SCF SETTINGS
------------
Hamiltonian:
 Density Functional     Method          .... DFT(GTOs)
 Exchange Functional    Exchange        .... WB97X
 Correlation Functional Correlation     .... WB97X
 Gradients option       PostSCFGGA      .... off
 Hybrid DFT is turned on
   Fraction HF Exchange ScalHFX         ....  0.157706
   Scaling of DF-GGA-X  ScalDFX         ....  0.000000
   Scaling of DF-GGA-C  ScalDFC         ....  1.000000
   Scaling of DF-LDA-C  ScalLDAC        ....  1.000000
   Perturbative correction              ....  0.000000
   Density functional embedding theory  .... OFF
 Long-range corrected/Screened/Range-Separated Hybrid DFT is turned on
   Amount of maximum screened exact exchange              ....  0.842294
   Range separation parameter mu (erf(mu*r12)/r12)        ....  0.300000
 RI-approximation to the Coulomb term is turned on
   Number of AuxJ basis functions       .... 22
   RIJ-COSX (HFX calculated with COS-X)).... on


General Settings:
 Integral files         IntName         .... he2_0_1_wb97x_ma-def2-tzvpp_r
 Hartree-Fock type      HFTyp           .... UHF
 Total Charge           Charge          ....    0
 Multiplicity           Mult            ....    1
 Number of Electrons    NEL             ....    4
 Basis Dimension        Dim             ....   36
 Nuclear Repulsion      ENuc            ....      0.4233417666 Eh

Convergence Acceleration:
 DIIS                   CNVDIIS         .... on
   Start iteration      DIISMaxIt       ....    12
   Startup error        DIISStart       ....  0.200000
   # of expansion vecs  DIISMaxEq       ....     5
   Bias factor          DIISBfac        ....   1.050
   Max. coefficient     DIISMaxC        ....  10.000
 Trust-Rad. Augm. Hess. CNVTRAH         .... auto
   Auto Start mean grad. ratio tolernc. ....  1.125000
   Auto Start start iteration           ....    20
   Auto Start num. interpolation iter.  ....    10
   Max. Number of Micro iterations      ....    16
   Max. Number of Macro iterations      .... Maxiter - #DIIS iter
   Number of Davidson start vectors     ....     2
   Converg. threshold I  (grad. norm)   ....   1.000e-05
   Converg. threshold II (energy diff.) ....   1.000e-08
   Grad. Scal. Fac. for Micro threshold ....   0.100
   Minimum threshold for Micro iter.    ....   0.010
   NR start threshold (gradient norm)   ....   0.001
   Initial trust radius                 ....   0.400
   Minimum AH scaling param. (alpha)    ....   1.000
   Maximum AH scaling param. (alpha)    .... 1000.000
   Orbital update algorithm             .... Taylor
   White noise on init. David. guess    .... on
   Maximum white noise                  ....   0.010
   Quad. conv. algorithm                .... NR
 SOSCF                  CNVSOSCF        .... off
 Level Shifting         CNVShift        .... on
   Level shift para.    LevelShift      ....    0.2500
   Turn off err/grad.   ShiftErr        ....    0.0010
 Zerner damping         CNVZerner       .... off
 Static damping         CNVDamp         .... on
   Fraction old density DampFac         ....    0.7000
   Max. Damping (<1)    DampMax         ....    0.9800
   Min. Damping (>=0)   DampMin         ....    0.0000
   Turn off err/grad.   DampErr         ....    0.1000
 Fernandez-Rico         CNVRico         .... off

SCF Procedure:
 Maximum # iterations   MaxIter         ....   250
 SCF integral mode      SCFMode         .... Direct
   Integral package                     .... SHARK and LIBINT hybrid scheme
 Reset frequency        DirectResetFreq ....    20
 Integral Threshold     Thresh          ....  2.500e-11 Eh
 Primitive CutOff       TCut            ....  2.500e-12 Eh

Convergence Tolerance:
 Convergence Check Mode ConvCheckMode   .... Total+1el-Energy
 Convergence forced     ConvForced      .... 0
 Energy Change          TolE            ....  1.000e-08 Eh
 1-El. energy change                    ....  1.000e-05 Eh
 DIIS Error             TolErr          ....  5.000e-07


Diagonalization of the overlap matrix:
Smallest eigenvalue                        ... 6.126e-02
Time for diagonalization                   ...    0.001 sec
Threshold for overlap eigenvalues          ... 1.000e-08
Number of eigenvalues below threshold      ... 0
Time for construction of square roots      ...    0.004 sec
Total time needed                          ...    0.004 sec

Time for model grid setup =    0.007 sec

------------------------------
INITIAL GUESS: MODEL POTENTIAL
------------------------------
Loading Hartree-Fock densities                     ... done
Calculating cut-offs                               ... done
Initializing the effective Hamiltonian             ... done
Setting up the integral package (SHARK)            ... done
Starting the Coulomb interaction                   ... done (   0.0 sec)
Reading the grid                                   ... done
Mapping shells                                     ... done
Starting the XC term evaluation                    ... done (   0.0 sec)
  promolecular density results
     # of electrons  =      4.001332999
     EX              =     -2.027868892
     EC              =     -0.084164179
     EX+EC           =     -2.112033071
Transforming the Hamiltonian                       ... done (   0.0 sec)
Diagonalizing the Hamiltonian                      ... done (   0.0 sec)
Back transforming the eigenvectors                 ... done (   0.0 sec)
Now organizing SCF variables                       ... done
                      ------------------
                      INITIAL GUESS DONE (   0.0 sec)
                      ------------------
-------------------
DFT GRID GENERATION
-------------------

General Integration Accuracy     IntAcc      ... 4.388
Radial Grid Type                 RadialGrid  ... OptM3 with GC (2021)
Angular Grid (max. ang.)         AngularGrid ... 4 (Lebedev-302)
Angular grid pruning method      GridPruning ... 4 (adaptive)
Weight generation scheme         WeightScheme... Becke
Basis function cutoff            BFCut       ... 1.0000e-11
Integration weight cutoff        WCut        ... 1.0000e-14
Angular grids for H and He will be reduced by one unit
Partially contracted basis set               ... off
Rotationally invariant grid construction     ... off

Total number of grid points                  ...     6668
Total number of batches                      ...      106
Average number of points per batch           ...       62
Average number of grid points per atom       ...     3334
Time for grid setup =    0.032 sec

--------------------
COSX GRID GENERATION
--------------------

GRIDX 1
-------
General Integration Accuracy     IntAcc      ... 3.816
Radial Grid Type                 RadialGrid  ... OptM3 with GC (2021)
Angular Grid (max. ang.)         AngularGrid ... 1 (Lebedev-50)
Angular grid pruning method      GridPruning ... 4 (adaptive)
Weight generation scheme         WeightScheme... Becke
Basis function cutoff            BFCut       ... 1.0000e-11
Integration weight cutoff        WCut        ... 1.0000e-14
Angular grids for H and He will be reduced by one unit
Partially contracted basis set               ... on
Rotationally invariant grid construction     ... off

Total number of grid points                  ...      898
Total number of batches                      ...       16
Average number of points per batch           ...       56
Average number of grid points per atom       ...      449
UseSFitting                                  ... on

GRIDX 2
-------
General Integration Accuracy     IntAcc      ... 4.020
Radial Grid Type                 RadialGrid  ... OptM3 with GC (2021)
Angular Grid (max. ang.)         AngularGrid ... 2 (Lebedev-110)
Angular grid pruning method      GridPruning ... 4 (adaptive)
Weight generation scheme         WeightScheme... Becke
Basis function cutoff            BFCut       ... 1.0000e-11
Integration weight cutoff        WCut        ... 1.0000e-14
Angular grids for H and He will be reduced by one unit
Partially contracted basis set               ... on
Rotationally invariant grid construction     ... off

Total number of grid points                  ...     1638
Total number of batches                      ...       26
Average number of points per batch           ...       63
Average number of grid points per atom       ...      819
UseSFitting                                  ... on

GRIDX 3
-------
General Integration Accuracy     IntAcc      ... 4.338
Radial Grid Type                 RadialGrid  ... OptM3 with GC (2021)
Angular Grid (max. ang.)         AngularGrid ... 3 (Lebedev-194)
Angular grid pruning method      GridPruning ... 4 (adaptive)
Weight generation scheme         WeightScheme... Becke
Basis function cutoff            BFCut       ... 1.0000e-11
Integration weight cutoff        WCut        ... 1.0000e-14
Angular grids for H and He will be reduced by one unit
Partially contracted basis set               ... on
Rotationally invariant grid construction     ... off

Total number of grid points                  ...     3602
Total number of batches                      ...       58
Average number of points per batch           ...       62
Average number of grid points per atom       ...     1801
UseSFitting                                  ... on

Time for X-Grid setup             =    0.036 sec

--------------
SCF ITERATIONS
--------------
ITER       Energy         Delta-E        Max-DP      RMS-DP      [F,P]     Damp
               ***  Starting incremental Fock matrix formation  ***
  0     -5.8049221936   0.000000000000 0.00138917  0.00009255  0.0208265 0.7000
  1     -5.8050782865  -0.000156092899 0.00120809  0.00008696  0.0162453 0.7000
                               ***Turning on DIIS***
  2     -5.8051976221  -0.000119335567 0.00330375  0.00023141  0.0121226 0.0000
  3     -5.8054998770  -0.000302254881 0.00083396  0.00005543  0.0024198 0.0000
  4     -5.8055070735  -0.000007196520 0.00046094  0.00003128  0.0006892 0.0000
               *** Restarting incremental Fock matrix formation ***
                                   *** Resetting DIIS ***
  5     -5.8055081361  -0.000001062601 0.00004791  0.00000278  0.0000304 0.0000
                 **** Energy Check signals convergence ****

               *****************************************************
               *                     SUCCESS                       *
               *           SCF CONVERGED AFTER   6 CYCLES          *
               *****************************************************

Old exchange energy                            =     -0.854812209 Eh
New exchange energy                            =     -0.854817013 Eh
Exchange energy change after final integration =     -0.000004804 Eh
Total energy after final integration           =     -5.805512944 Eh
Final COS-X integration done in                =     0.089 sec

----------------
TOTAL SCF ENERGY
----------------

Total Energy       :           -5.80551294 Eh            -157.97604 eV

Components:
Nuclear Repulsion  :            0.42334177 Eh              11.51972 eV
Electronic Energy  :           -6.22885471 Eh            -169.49575 eV
One Electron Energy:           -8.60252297 Eh            -234.08655 eV
Two Electron Energy:            2.37366826 Eh              64.59080 eV
Max COSX asymmetry :            0.00000023 Eh               0.00001 eV

Virial components:
Potential Energy   :          -11.53778509 Eh            -313.95909 eV
Kinetic Energy     :            5.73227215 Eh             155.98306 eV
Virial Ratio       :            2.01277692


DFT components:
N(Alpha)           :        1.999959698285 electrons
N(Beta)            :        1.999959698285 electrons
N(Total)           :        3.999919396569 electrons
E(XC)              :       -1.269599522136 Eh       
DFET-embed. en.    :        0.000000000000 Eh       

---------------
SCF CONVERGENCE
---------------

  Last Energy change         ...   -3.6863e-09  Tolerance :   1.0000e-08
  Last MAX-Density change    ...    0.0000e+00  Tolerance :   1.0000e-07
  Last RMS-Density change    ...    0.0000e+00  Tolerance :   5.0000e-09
  Last DIIS Error            ...    7.1641e-06  Tolerance :   5.0000e-07

             **** THE GBW FILE WAS UPDATED (he2_0_1_wb97x_ma-def2-tzvpp_r.gbw) ****
             **** DENSITY he2_0_1_wb97x_ma-def2-tzvpp_r.scfp WAS UPDATED ****
             **** ENERGY FILE WAS UPDATED (he2_0_1_wb97x_ma-def2-tzvpp_r.en.tmp) ****
----------------------
UHF SPIN CONTAMINATION
----------------------

Warning: in a DFT calculation there is little theoretical justification to 
         calculate <S**2> as in Hartree-Fock theory. We will do it anyways
         but you should keep in mind that the values have only limited relevance

Expectation value of <S**2>     :     0.000000
Ideal value S*(S+1) for S=0.0   :     0.000000
Deviation                       :     0.000000

             **** THE GBW FILE WAS UPDATED (he2_0_1_wb97x_ma-def2-tzvpp_r.gbw) ****
             **** DENSITY he2_0_1_wb97x_ma-def2-tzvpp_r.scfp WAS UPDATED ****
----------------
ORBITAL ENERGIES
----------------
                 SPIN UP ORBITALS
  NO   OCC          E(Eh)            E(eV) 
   0   1.0000      -0.768007       -20.8985 
   1   1.0000      -0.767962       -20.8973 
   2   0.0000       0.176376         4.7994 
   3   0.0000       0.207317         5.6414 
   4   0.0000       0.498024        13.5519 
   5   0.0000       0.498493        13.5647 
   6   0.0000       0.498493        13.5647 
   7   0.0000       0.498574        13.5669 
   8   0.0000       0.498574        13.5669 
   9   0.0000       0.499630        13.5956 
  10   0.0000       1.063492        28.9391 
  11   0.0000       1.096292        29.8316 
  12   0.0000       1.984089        53.9898 
  13   0.0000       1.984555        54.0025 
  14   0.0000       1.984555        54.0025 
  15   0.0000       1.984643        54.0049 
  16   0.0000       1.984643        54.0049 
  17   0.0000       1.985922        54.0397 
  18   0.0000       6.051614       164.6728 
  19   0.0000       6.051614       164.6728 
  20   0.0000       6.051614       164.6728 
  21   0.0000       6.051614       164.6728 
  22   0.0000       6.051615       164.6728 
  23   0.0000       6.051615       164.6728 
  24   0.0000       6.051615       164.6728 
  25   0.0000       6.051615       164.6728 
  26   0.0000       6.051615       164.6728 
  27   0.0000       6.051615       164.6728 
  28   0.0000       6.169104       167.8698 
  29   0.0000       6.199885       168.7074 
  30   0.0000       7.972941       216.9547 
  31   0.0000       7.973169       216.9610 
  32   0.0000       7.973169       216.9610 
  33   0.0000       7.973213       216.9622 
  34   0.0000       7.973213       216.9622 
  35   0.0000       7.973885       216.9804 

                 SPIN DOWN ORBITALS
  NO   OCC          E(Eh)            E(eV) 
   0   1.0000      -0.768007       -20.8985 
   1   1.0000      -0.767962       -20.8973 
   2   0.0000       0.176376         4.7994 
   3   0.0000       0.207317         5.6414 
   4   0.0000       0.498024        13.5519 
   5   0.0000       0.498493        13.5647 
   6   0.0000       0.498493        13.5647 
   7   0.0000       0.498574        13.5669 
   8   0.0000       0.498574        13.5669 
   9   0.0000       0.499630        13.5956 
  10   0.0000       1.063492        28.9391 
  11   0.0000       1.096292        29.8316 
  12   0.0000       1.984089        53.9898 
  13   0.0000       1.984555        54.0025 
  14   0.0000       1.984555        54.0025 
  15   0.0000       1.984643        54.0049 
  16   0.0000       1.984643        54.0049 
  17   0.0000       1.985922        54.0397 
  18   0.0000       6.051614       164.6728 
  19   0.0000       6.051614       164.6728 
  20   0.0000       6.051614       164.6728 
  21   0.0000       6.051614       164.6728 
  22   0.0000       6.051615       164.6728 
  23   0.0000       6.051615       164.6728 
  24   0.0000       6.051615       164.6728 
  25   0.0000       6.051615       164.6728 
  26   0.0000       6.051615       164.6728 
  27   0.0000       6.051615       164.6728 
  28   0.0000       6.169104       167.8698 
  29   0.0000       6.199885       168.7074 
  30   0.0000       7.972941       216.9547 
  31   0.0000       7.973169       216.9610 
  32   0.0000       7.973169       216.9610 
  33   0.0000       7.973213       216.9622 
  34   0.0000       7.973213       216.9622 
  35   0.0000       7.973885       216.9804 

                    ********************************
                    * MULLIKEN POPULATION ANALYSIS *
                    ********************************

--------------------------------------------
MULLIKEN ATOMIC CHARGES AND SPIN POPULATIONS
--------------------------------------------
   0 He:   -0.000000    0.000000
   1 He:    0.000000    0.000000
Sum of atomic charges         :    0.0000000
Sum of atomic spin populations:    0.0000000

-----------------------------------------------------
MULLIKEN REDUCED ORBITAL CHARGES AND SPIN POPULATIONS
-----------------------------------------------------
CHARGE
  0 Hes       :     2.000000  s :     2.000000
      pz      :     0.000000  p :    -0.000000
      px      :    -0.000000
      py      :     0.000000
      dz2     :     0.000000  d :     0.000000
      dxz     :     0.000000
      dyz     :     0.000000
      dx2y2   :     0.000000
      dxy     :     0.000000
  1 Hes       :     2.000000  s :     2.000000
      pz      :     0.000000  p :    -0.000000
      px      :    -0.000000
      py      :     0.000000
      dz2     :     0.000000  d :     0.000000
      dxz     :     0.000000
      dyz     :     0.000000
      dx2y2   :     0.000000
      dxy     :     0.000000

SPIN
  0 Hes       :     0.000000  s :     0.000000
      pz      :     0.000000  p :     0.000000
      px      :     0.000000
      py      :    -0.000000
      dz2     :    -0.000000  d :    -0.000000
      dxz     :    -0.000000
      dyz     :    -0.000000
      dx2y2   :    -0.000000
      dxy     :     0.000000
  1 Hes       :     0.000000  s :     0.000000
      pz      :     0.000000  p :    -0.000000
      px      :    -0.000000
      py      :     0.000000
      dz2     :    -0.000000  d :    -0.000000
      dxz     :    -0.000000
      dyz     :    -0.000000
      dx2y2   :    -0.000000
      dxy     :     0.000000


                     *******************************
                     * LOEWDIN POPULATION ANALYSIS *
                     *******************************

-------------------------------------------
LOEWDIN ATOMIC CHARGES AND SPIN POPULATIONS
-------------------------------------------
   0 He:    0.000000    0.000000
   1 He:   -0.000000    0.000000

----------------------------------------------------
LOEWDIN REDUCED ORBITAL CHARGES AND SPIN POPULATIONS
----------------------------------------------------
CHARGE
  0 Hes       :     2.000000  s :     2.000000
      pz      :     0.000000  p :     0.000000
      px      :     0.000000
      py      :     0.000000
      dz2     :     0.000000  d :     0.000000
      dxz     :     0.000000
      dyz     :     0.000000
      dx2y2   :     0.000000
      dxy     :     0.000000
  1 Hes       :     2.000000  s :     2.000000
      pz      :     0.000000  p :     0.000000
      px      :     0.000000
      py      :     0.000000
      dz2     :     0.000000  d :     0.000000
      dxz     :     0.000000
      dyz     :     0.000000
      dx2y2   :     0.000000
      dxy     :     0.000000

SPIN
  0 Hes       :     0.000000  s :     0.000000
      pz      :     0.000000  p :    -0.000000
      px      :    -0.000000
      py      :    -0.000000
      dz2     :     0.000000  d :     0.000000
      dxz     :    -0.000000
      dyz     :    -0.000000
      dx2y2   :     0.000000
      dxy     :     0.000000
  1 Hes       :     0.000000  s :     0.000000
      pz      :     0.000000  p :     0.000000
      px      :     0.000000
      py      :     0.000000
      dz2     :     0.000000  d :     0.000000
      dxz     :    -0.000000
      dyz     :    -0.000000
      dx2y2   :     0.000000
      dxy     :     0.000000


                      *****************************
                      * MAYER POPULATION ANALYSIS *
                      *****************************

  NA   - Mulliken gross atomic population
  ZA   - Total nuclear charge
  QA   - Mulliken gross atomic charge
  VA   - Mayer's total valence
  BVA  - Mayer's bonded valence
  FA   - Mayer's free valence

  ATOM       NA         ZA         QA         VA         BVA        FA
  0 He     2.0000     2.0000    -0.0000     0.0000     0.0000    -0.0000
  1 He     2.0000     2.0000     0.0000     0.0000     0.0000     0.0000

  Mayer bond orders larger than 0.100000


-------
TIMINGS
-------

Total SCF time: 0 days 0 hours 0 min 1 sec 

Total time                  ....       1.173 sec
Sum of individual times     ....       1.077 sec  ( 91.7%)

Fock matrix formation       ....       0.965 sec  ( 82.2%)
  Split-RI-J                ....       0.159 sec  ( 16.5% of F)
  Chain of spheres X        ....       0.442 sec  ( 45.8% of F)
  XC integration            ....       0.282 sec  ( 29.2% of F)
    Basis function eval.    ....       0.045 sec  ( 16.2% of XC)
    Density eval.           ....       0.039 sec  ( 13.9% of XC)
    XC-Functional eval.     ....       0.107 sec  ( 37.9% of XC)
    XC-Potential eval.      ....       0.023 sec  (  8.1% of XC)
Diagonalization             ....       0.007 sec  (  0.6%)
Density matrix formation    ....       0.000 sec  (  0.0%)
Population analysis         ....       0.014 sec  (  1.2%)
Initial guess               ....       0.012 sec  (  1.0%)
Orbital Transformation      ....       0.000 sec  (  0.0%)
Orbital Orthonormalization  ....       0.000 sec  (  0.0%)
DIIS solution               ....       0.004 sec  (  0.3%)
Grid generation             ....       0.074 sec  (  6.3%)

Maximum memory used throughout the entire SCF-calculation: 40.6 MB

-------------------------   --------------------
FINAL SINGLE POINT ENERGY        -5.805512943960
-------------------------   --------------------

Storing actual gbw-file in he2_0_1_wb97x_ma-def2-tzvpp_r.001.gbw ... done

                            ***************************************
                            *     ORCA property calculations      *
                            ***************************************

                                    ---------------------
                                    Active property flags
                                    ---------------------
   (+) Dipole Moment


------------------------------------------------------------------------------
                       ORCA ELECTRIC PROPERTIES CALCULATION
------------------------------------------------------------------------------

Dipole Moment Calculation                       ... on
Quadrupole Moment Calculation                   ... off
Polarizability Calculation                      ... off
GBWName                                         ... he2_0_1_wb97x_ma-def2-tzvpp_r.gbw
Electron density                                ... he2_0_1_wb97x_ma-def2-tzvpp_r.scfp
The origin for moment calculation is the CENTER OF MASS  = ( 4.724315,  0.000000  0.000000)

-------------
DIPOLE MOMENT
-------------
                                X             Y             Z
Electronic contribution:      0.00000       0.00000       0.00000
Nuclear contribution   :      0.00000       0.00000       0.00000
                        -----------------------------------------
Total Dipole Moment    :      0.00000       0.00000       0.00000
                        -----------------------------------------
Magnitude (a.u.)       :      0.00000
Magnitude (Debye)      :      0.00000



--------------------
Rotational spectrum 
--------------------
 
Rotational constants in cm-1:     0.000000     0.336900     0.336900 
Rotational constants in MHz :     0.000000 10100.014583 10100.014583 

 Dipole components along the rotational axes: 
x,y,z [a.u.] :     0.000000     0.000000     0.000000 
x,y,z [Debye]:     0.000000     0.000000     0.000000 

 

         *************************************************************
                                TRAJECTORY STEP   2
              RHEHE  :   5.25000000
         *************************************************************
---------------------------------
CARTESIAN COORDINATES (ANGSTROEM)
---------------------------------
  He     0.000000    0.000000    0.000000
  He     5.250000    0.000000    0.000000

----------------------------
CARTESIAN COORDINATES (A.U.)
----------------------------
  NO LB      ZA    FRAG     MASS         X           Y           Z
   0 He    2.0000    0     4.003    0.000000    0.000000    0.000000
   1 He    2.0000    0     4.003    9.921062    0.000000    0.000000

--------------------------------
INTERNAL COORDINATES (ANGSTROEM)
--------------------------------
 He     0   0   0     0.000000000000     0.00000000     0.00000000
 He     1   0   0     5.250000000000     0.00000000     0.00000000

---------------------------
INTERNAL COORDINATES (A.U.)
---------------------------
 He     0   0   0     0.000000000000     0.00000000     0.00000000
 He     1   0   0     9.921062203087     0.00000000     0.00000000

------------------------------------------------------------------------------
                   ___                                                        
                  /   \      - P O W E R E D   B Y -                         
                 /     \                                                     
                 |  |  |   _    _      __       _____    __    __             
                 |  |  |  | |  | |    /  \     |  _  \  |  |  /  |          
                  \  \/   | |  | |   /    \    | | | |  |  | /  /          
                 / \  \   | |__| |  /  /\  \   | |_| |  |  |/  /          
                |  |  |   |  __  | /  /__\  \  |    /   |      \           
                |  |  |   | |  | | |   __   |  |    \   |  |\   \          
                \     /   | |  | | |  |  |  |  | |\  \  |  | \   \       
                 \___/    |_|  |_| |__|  |__|  |_| \__\ |__|  \__/        
                                                                              
                      - O R C A' S   B I G   F R I E N D -                    
                                      &                                       
                       - I N T E G R A L  F E E D E R -                       
                                                                              
 v1 FN, 2020, v2 2021                                                         
------------------------------------------------------------------------------


Reading SHARK input file he2_0_1_wb97x_ma-def2-tzvpp_r.SHARKINP.tmp ... ok
----------------------
SHARK INTEGRAL PACKAGE
----------------------

Number of atoms                             ...      2
Number of basis functions                   ...     36
Number of shells                            ...     16
Maximum angular momentum                    ...      2
Integral batch strategy                     ... SHARK/LIBINT Hybrid
RI-J (if used) integral strategy            ... SPLIT-RIJ (Revised 2003 algorithm where possible)
Printlevel                                  ...      1
Contraction scheme used                     ... SEGMENTED contraction
Coulomb Range Separation                    ... NOT USED
Exchange Range Separation                   ... Long Range
   Mu parameter                             ...  0.300000
   Scaling (regular/separated)              ...  0.157706  0.842294
Finite Nucleus Model                        ... NOT USED
Auxiliary Coulomb fitting basis             ... AVAILABLE
   # of basis functions in Aux-J            ...     22
   # of shells in Aux-J                     ...     10
   Maximum angular momentum in Aux-J        ...      2
Auxiliary J/K fitting basis                 ... NOT available
Auxiliary Correlation fitting basis         ... NOT available
Auxiliary 'external' fitting basis          ... NOT available
Integral threshold                          ...     2.500000e-11
Primitive cut-off                           ...     2.500000e-12
Primitive pair pre-selection threshold      ...     2.500000e-12

Calculating pre-screening integrals         ... done (  0.0 sec) Dimension = 16
Organizing shell pair data                  ... done (  0.0 sec)
Shell pair information
Total number of shell pairs                 ...       136
Shell pairs after pre-screening             ...       111
Total number of primitive shell pairs       ...       216
Primitive shell pairs kept                  ...       167
          la=0 lb=0:     32 shell pairs
          la=1 lb=0:     40 shell pairs
          la=1 lb=1:     17 shell pairs
          la=2 lb=0:     12 shell pairs
          la=2 lb=1:      8 shell pairs
          la=2 lb=2:      2 shell pairs

Calculating one electron integrals          ... done (  0.0 sec)
Calculating RI/J V-Matrix + Cholesky decomp.... done (  0.0 sec)
Calculating Nuclear repulsion               ... done (  0.0 sec) ENN=      0.403182634895 Eh

SHARK setup successfully completed in   0.1 seconds

Maximum memory used throughout the entire GTOINT-calculation: 6.1 MB

Diagonalization of the overlap matrix:
Smallest eigenvalue                        ... 6.192e-02
Time for diagonalization                   ...    0.001 sec
Threshold for overlap eigenvalues          ... 1.000e-08
Number of eigenvalues below threshold      ... 0
Time for construction of square roots      ...    0.002 sec
Total time needed                          ...    0.003 sec

-------------------
DFT GRID GENERATION
-------------------

General Integration Accuracy     IntAcc      ... 4.388
Radial Grid Type                 RadialGrid  ... OptM3 with GC (2021)
Angular Grid (max. ang.)         AngularGrid ... 4 (Lebedev-302)
Angular grid pruning method      GridPruning ... 4 (adaptive)
Weight generation scheme         WeightScheme... Becke
Basis function cutoff            BFCut       ... 1.0000e-11
Integration weight cutoff        WCut        ... 1.0000e-14
Angular grids for H and He will be reduced by one unit
Partially contracted basis set               ... off
Rotationally invariant grid construction     ... off

Total number of grid points                  ...     6668
Total number of batches                      ...      106
Average number of points per batch           ...       62
Average number of grid points per atom       ...     3334
Time for grid setup =    0.041 sec

--------------------
COSX GRID GENERATION
--------------------

GRIDX 1
-------
General Integration Accuracy     IntAcc      ... 3.816
Radial Grid Type                 RadialGrid  ... OptM3 with GC (2021)
Angular Grid (max. ang.)         AngularGrid ... 1 (Lebedev-50)
Angular grid pruning method      GridPruning ... 4 (adaptive)
Weight generation scheme         WeightScheme... Becke
Basis function cutoff            BFCut       ... 1.0000e-11
Integration weight cutoff        WCut        ... 1.0000e-14
Angular grids for H and He will be reduced by one unit
Partially contracted basis set               ... on
Rotationally invariant grid construction     ... off

Total number of grid points                  ...      898
Total number of batches                      ...       16
Average number of points per batch           ...       56
Average number of grid points per atom       ...      449
UseSFitting                                  ... on

GRIDX 2
-------
General Integration Accuracy     IntAcc      ... 4.020
Radial Grid Type                 RadialGrid  ... OptM3 with GC (2021)
Angular Grid (max. ang.)         AngularGrid ... 2 (Lebedev-110)
Angular grid pruning method      GridPruning ... 4 (adaptive)
Weight generation scheme         WeightScheme... Becke
Basis function cutoff            BFCut       ... 1.0000e-11
Integration weight cutoff        WCut        ... 1.0000e-14
Angular grids for H and He will be reduced by one unit
Partially contracted basis set               ... on
Rotationally invariant grid construction     ... off

Total number of grid points                  ...     1640
Total number of batches                      ...       26
Average number of points per batch           ...       63
Average number of grid points per atom       ...      820
UseSFitting                                  ... on

GRIDX 3
-------
General Integration Accuracy     IntAcc      ... 4.338
Radial Grid Type                 RadialGrid  ... OptM3 with GC (2021)
Angular Grid (max. ang.)         AngularGrid ... 3 (Lebedev-194)
Angular grid pruning method      GridPruning ... 4 (adaptive)
Weight generation scheme         WeightScheme... Becke
Basis function cutoff            BFCut       ... 1.0000e-11
Integration weight cutoff        WCut        ... 1.0000e-14
Angular grids for H and He will be reduced by one unit
Partially contracted basis set               ... on
Rotationally invariant grid construction     ... off

Total number of grid points                  ...     3602
Total number of batches                      ...       58
Average number of points per batch           ...       62
Average number of grid points per atom       ...     1801
UseSFitting                                  ... on

Time for X-Grid setup             =    0.048 sec

--------------
SCF ITERATIONS
--------------
ITER       Energy         Delta-E        Max-DP      RMS-DP      [F,P]     Damp
               ***  Starting incremental Fock matrix formation  ***
  0     -5.8055199355   0.000000000000 0.00002452  0.00000124  0.0000735 0.7000
                 **** Energy Check signals convergence ****

               *****************************************************
               *                     SUCCESS                       *
               *           SCF CONVERGED AFTER   1 CYCLES          *
               *****************************************************

Old exchange energy                            =     -0.854816486 Eh
New exchange energy                            =     -0.854816134 Eh
Exchange energy change after final integration =      0.000000351 Eh
Total energy after final integration           =     -5.805519590 Eh
Final COS-X integration done in                =     0.088 sec
Total Energy       :           -5.80551959 Eh            -157.97622 eV
  Last Energy change         ...   -5.9110e-09  Tolerance :   1.0000e-08
  Last MAX-Density change    ...    7.5179e-06  Tolerance :   1.0000e-07
             **** THE GBW FILE WAS UPDATED (he2_0_1_wb97x_ma-def2-tzvpp_r.gbw) ****
             **** DENSITY he2_0_1_wb97x_ma-def2-tzvpp_r.scfp WAS UPDATED ****
             **** ENERGY FILE WAS UPDATED (he2_0_1_wb97x_ma-def2-tzvpp_r.en.tmp) ****
----------------------
UHF SPIN CONTAMINATION
----------------------

Warning: in a DFT calculation there is little theoretical justification to 
         calculate <S**2> as in Hartree-Fock theory. We will do it anyways
         but you should keep in mind that the values have only limited relevance

Expectation value of <S**2>     :     0.000000
Ideal value S*(S+1) for S=0.0   :     0.000000
Deviation                       :     0.000000

             **** THE GBW FILE WAS UPDATED (he2_0_1_wb97x_ma-def2-tzvpp_r.gbw) ****
             **** DENSITY he2_0_1_wb97x_ma-def2-tzvpp_r.scfp WAS UPDATED ****
Total SCF time: 0 days 0 hours 0 min 0 sec 

Maximum memory used throughout the entire SCF-calculation: 40.6 MB

-------------------------   --------------------
FINAL SINGLE POINT ENERGY        -5.805519589953
-------------------------   --------------------

Storing actual gbw-file in he2_0_1_wb97x_ma-def2-tzvpp_r.002.gbw ... done

                            ***************************************
                            *     ORCA property calculations      *
                            ***************************************

                                    ---------------------
                                    Active property flags
                                    ---------------------
   (+) Dipole Moment


------------------------------------------------------------------------------
                       ORCA ELECTRIC PROPERTIES CALCULATION
------------------------------------------------------------------------------

Dipole Moment Calculation                       ... on
Quadrupole Moment Calculation                   ... off
Polarizability Calculation                      ... off
GBWName                                         ... he2_0_1_wb97x_ma-def2-tzvpp_r.gbw
Electron density                                ... he2_0_1_wb97x_ma-def2-tzvpp_r.scfp
The origin for moment calculation is the CENTER OF MASS  = ( 4.960531,  0.000000  0.000000)

-------------
DIPOLE MOMENT
-------------
                                X             Y             Z
Electronic contribution:      0.00000      -0.00000       0.00000
Nuclear contribution   :      0.00000       0.00000       0.00000
                        -----------------------------------------
Total Dipole Moment    :      0.00000      -0.00000       0.00000
                        -----------------------------------------
Magnitude (a.u.)       :      0.00000
Magnitude (Debye)      :      0.00000



--------------------
Rotational spectrum 
--------------------
 
Rotational constants in cm-1:     0.000000     0.305578     0.305578 
Rotational constants in MHz :     0.000000  9161.010959  9161.010959 

 Dipole components along the rotational axes: 
x,y,z [a.u.] :     0.000000    -0.000000     0.000000 
x,y,z [Debye]:     0.000000    -0.000000     0.000000 

 

         *************************************************************
                                TRAJECTORY STEP   3
              RHEHE  :   5.50000000
         *************************************************************
---------------------------------
CARTESIAN COORDINATES (ANGSTROEM)
---------------------------------
  He     0.000000    0.000000    0.000000
  He     5.500000    0.000000    0.000000

----------------------------
CARTESIAN COORDINATES (A.U.)
----------------------------
  NO LB      ZA    FRAG     MASS         X           Y           Z
   0 He    2.0000    0     4.003    0.000000    0.000000    0.000000
   1 He    2.0000    0     4.003   10.393494    0.000000    0.000000

--------------------------------
INTERNAL COORDINATES (ANGSTROEM)
--------------------------------
 He     0   0   0     0.000000000000     0.00000000     0.00000000
 He     1   0   0     5.500000000000     0.00000000     0.00000000

---------------------------
INTERNAL COORDINATES (A.U.)
---------------------------
 He     0   0   0     0.000000000000     0.00000000     0.00000000
 He     1   0   0    10.393493736567     0.00000000     0.00000000

------------------------------------------------------------------------------
                   ___                                                        
                  /   \      - P O W E R E D   B Y -                         
                 /     \                                                     
                 |  |  |   _    _      __       _____    __    __             
                 |  |  |  | |  | |    /  \     |  _  \  |  |  /  |          
                  \  \/   | |  | |   /    \    | | | |  |  | /  /          
                 / \  \   | |__| |  /  /\  \   | |_| |  |  |/  /          
                |  |  |   |  __  | /  /__\  \  |    /   |      \           
                |  |  |   | |  | | |   __   |  |    \   |  |\   \          
                \     /   | |  | | |  |  |  |  | |\  \  |  | \   \       
                 \___/    |_|  |_| |__|  |__|  |_| \__\ |__|  \__/        
                                                                              
                      - O R C A' S   B I G   F R I E N D -                    
                                      &                                       
                       - I N T E G R A L  F E E D E R -                       
                                                                              
 v1 FN, 2020, v2 2021                                                         
------------------------------------------------------------------------------


Reading SHARK input file he2_0_1_wb97x_ma-def2-tzvpp_r.SHARKINP.tmp ... ok
----------------------
SHARK INTEGRAL PACKAGE
----------------------

Number of atoms                             ...      2
Number of basis functions                   ...     36
Number of shells                            ...     16
Maximum angular momentum                    ...      2
Integral batch strategy                     ... SHARK/LIBINT Hybrid
RI-J (if used) integral strategy            ... SPLIT-RIJ (Revised 2003 algorithm where possible)
Printlevel                                  ...      1
Contraction scheme used                     ... SEGMENTED contraction
Coulomb Range Separation                    ... NOT USED
Exchange Range Separation                   ... Long Range
   Mu parameter                             ...  0.300000
   Scaling (regular/separated)              ...  0.157706  0.842294
Finite Nucleus Model                        ... NOT USED
Auxiliary Coulomb fitting basis             ... AVAILABLE
   # of basis functions in Aux-J            ...     22
   # of shells in Aux-J                     ...     10
   Maximum angular momentum in Aux-J        ...      2
Auxiliary J/K fitting basis                 ... NOT available
Auxiliary Correlation fitting basis         ... NOT available
Auxiliary 'external' fitting basis          ... NOT available
Integral threshold                          ...     2.500000e-11
Primitive cut-off                           ...     2.500000e-12
Primitive pair pre-selection threshold      ...     2.500000e-12

Calculating pre-screening integrals         ... done (  0.0 sec) Dimension = 16
Organizing shell pair data                  ... done (  0.0 sec)
Shell pair information
Total number of shell pairs                 ...       136
Shell pairs after pre-screening             ...       111
Total number of primitive shell pairs       ...       216
Primitive shell pairs kept                  ...       167
          la=0 lb=0:     32 shell pairs
          la=1 lb=0:     40 shell pairs
          la=1 lb=1:     17 shell pairs
          la=2 lb=0:     12 shell pairs
          la=2 lb=1:      8 shell pairs
          la=2 lb=2:      2 shell pairs

Calculating one electron integrals          ... done (  0.0 sec)
Calculating RI/J V-Matrix + Cholesky decomp.... done (  0.0 sec)
Calculating Nuclear repulsion               ... done (  0.0 sec) ENN=      0.384856151491 Eh

SHARK setup successfully completed in   0.1 seconds

Maximum memory used throughout the entire GTOINT-calculation: 6.1 MB

Diagonalization of the overlap matrix:
Smallest eigenvalue                        ... 6.246e-02
Time for diagonalization                   ...    0.000 sec
Threshold for overlap eigenvalues          ... 1.000e-08
Number of eigenvalues below threshold      ... 0
Time for construction of square roots      ...    0.002 sec
Total time needed                          ...    0.003 sec

-------------------
DFT GRID GENERATION
-------------------

General Integration Accuracy     IntAcc      ... 4.388
Radial Grid Type                 RadialGrid  ... OptM3 with GC (2021)
Angular Grid (max. ang.)         AngularGrid ... 4 (Lebedev-302)
Angular grid pruning method      GridPruning ... 4 (adaptive)
Weight generation scheme         WeightScheme... Becke
Basis function cutoff            BFCut       ... 1.0000e-11
Integration weight cutoff        WCut        ... 1.0000e-14
Angular grids for H and He will be reduced by one unit
Partially contracted basis set               ... off
Rotationally invariant grid construction     ... off

Total number of grid points                  ...     6668
Total number of batches                      ...      106
Average number of points per batch           ...       62
Average number of grid points per atom       ...     3334
Time for grid setup =    0.032 sec

--------------------
COSX GRID GENERATION
--------------------

GRIDX 1
-------
General Integration Accuracy     IntAcc      ... 3.816
Radial Grid Type                 RadialGrid  ... OptM3 with GC (2021)
Angular Grid (max. ang.)         AngularGrid ... 1 (Lebedev-50)
Angular grid pruning method      GridPruning ... 4 (adaptive)
Weight generation scheme         WeightScheme... Becke
Basis function cutoff            BFCut       ... 1.0000e-11
Integration weight cutoff        WCut        ... 1.0000e-14
Angular grids for H and He will be reduced by one unit
Partially contracted basis set               ... on
Rotationally invariant grid construction     ... off

Total number of grid points                  ...      898
Total number of batches                      ...       16
Average number of points per batch           ...       56
Average number of grid points per atom       ...      449
UseSFitting                                  ... on

GRIDX 2
-------
General Integration Accuracy     IntAcc      ... 4.020
Radial Grid Type                 RadialGrid  ... OptM3 with GC (2021)
Angular Grid (max. ang.)         AngularGrid ... 2 (Lebedev-110)
Angular grid pruning method      GridPruning ... 4 (adaptive)
Weight generation scheme         WeightScheme... Becke
Basis function cutoff            BFCut       ... 1.0000e-11
Integration weight cutoff        WCut        ... 1.0000e-14
Angular grids for H and He will be reduced by one unit
Partially contracted basis set               ... on
Rotationally invariant grid construction     ... off

Total number of grid points                  ...     1640
Total number of batches                      ...       26
Average number of points per batch           ...       63
Average number of grid points per atom       ...      820
UseSFitting                                  ... on

GRIDX 3
-------
General Integration Accuracy     IntAcc      ... 4.338
Radial Grid Type                 RadialGrid  ... OptM3 with GC (2021)
Angular Grid (max. ang.)         AngularGrid ... 3 (Lebedev-194)
Angular grid pruning method      GridPruning ... 4 (adaptive)
Weight generation scheme         WeightScheme... Becke
Basis function cutoff            BFCut       ... 1.0000e-11
Integration weight cutoff        WCut        ... 1.0000e-14
Angular grids for H and He will be reduced by one unit
Partially contracted basis set               ... on
Rotationally invariant grid construction     ... off

Total number of grid points                  ...     3604
Total number of batches                      ...       58
Average number of points per batch           ...       62
Average number of grid points per atom       ...     1802
UseSFitting                                  ... on

Time for X-Grid setup             =    0.035 sec

--------------
SCF ITERATIONS
--------------
ITER       Energy         Delta-E        Max-DP      RMS-DP      [F,P]     Damp
               ***  Starting incremental Fock matrix formation  ***
  0     -5.8055277491   0.000000000000 0.00002172  0.00000111  0.0000738 0.7000
                 **** Energy Check signals convergence ****

               *****************************************************
               *                     SUCCESS                       *
               *           SCF CONVERGED AFTER   1 CYCLES          *
               *****************************************************

Old exchange energy                            =     -0.854814691 Eh
New exchange energy                            =     -0.854815643 Eh
Exchange energy change after final integration =     -0.000000952 Eh
Total energy after final integration           =     -5.805528706 Eh
Final COS-X integration done in                =     0.088 sec
Total Energy       :           -5.80552871 Eh            -157.97647 eV
  Last Energy change         ...   -5.3629e-09  Tolerance :   1.0000e-08
  Last MAX-Density change    ...    6.6481e-06  Tolerance :   1.0000e-07
             **** THE GBW FILE WAS UPDATED (he2_0_1_wb97x_ma-def2-tzvpp_r.gbw) ****
             **** DENSITY he2_0_1_wb97x_ma-def2-tzvpp_r.scfp WAS UPDATED ****
             **** ENERGY FILE WAS UPDATED (he2_0_1_wb97x_ma-def2-tzvpp_r.en.tmp) ****
----------------------
UHF SPIN CONTAMINATION
----------------------

Warning: in a DFT calculation there is little theoretical justification to 
         calculate <S**2> as in Hartree-Fock theory. We will do it anyways
         but you should keep in mind that the values have only limited relevance

Expectation value of <S**2>     :     0.000000
Ideal value S*(S+1) for S=0.0   :     0.000000
Deviation                       :     0.000000

             **** THE GBW FILE WAS UPDATED (he2_0_1_wb97x_ma-def2-tzvpp_r.gbw) ****
             **** DENSITY he2_0_1_wb97x_ma-def2-tzvpp_r.scfp WAS UPDATED ****
Total SCF time: 0 days 0 hours 0 min 0 sec 

Maximum memory used throughout the entire SCF-calculation: 40.6 MB

-------------------------   --------------------
FINAL SINGLE POINT ENERGY        -5.805528706026
-------------------------   --------------------

Storing actual gbw-file in he2_0_1_wb97x_ma-def2-tzvpp_r.003.gbw ... done

                            ***************************************
                            *     ORCA property calculations      *
                            ***************************************

                                    ---------------------
                                    Active property flags
                                    ---------------------
   (+) Dipole Moment


------------------------------------------------------------------------------
                       ORCA ELECTRIC PROPERTIES CALCULATION
------------------------------------------------------------------------------

Dipole Moment Calculation                       ... on
Quadrupole Moment Calculation                   ... off
Polarizability Calculation                      ... off
GBWName                                         ... he2_0_1_wb97x_ma-def2-tzvpp_r.gbw
Electron density                                ... he2_0_1_wb97x_ma-def2-tzvpp_r.scfp
The origin for moment calculation is the CENTER OF MASS  = ( 5.196747,  0.000000  0.000000)

-------------
DIPOLE MOMENT
-------------
                                X             Y             Z
Electronic contribution:      0.00000       0.00000       0.00000
Nuclear contribution   :      0.00000       0.00000       0.00000
                        -----------------------------------------
Total Dipole Moment    :      0.00000       0.00000       0.00000
                        -----------------------------------------
Magnitude (a.u.)       :      0.00000
Magnitude (Debye)      :      0.00000



--------------------
Rotational spectrum 
--------------------
 
Rotational constants in cm-1:     0.000000     0.278430     0.278430 
Rotational constants in MHz :     0.000000  8347.119490  8347.119490 

 Dipole components along the rotational axes: 
x,y,z [a.u.] :     0.000000     0.000000     0.000000 
x,y,z [Debye]:     0.000000     0.000000     0.000000 

 

         *************************************************************
                                TRAJECTORY STEP   4
              RHEHE  :   5.75000000
         *************************************************************
---------------------------------
CARTESIAN COORDINATES (ANGSTROEM)
---------------------------------
  He     0.000000    0.000000    0.000000
  He     5.750000    0.000000    0.000000

----------------------------
CARTESIAN COORDINATES (A.U.)
----------------------------
  NO LB      ZA    FRAG     MASS         X           Y           Z
   0 He    2.0000    0     4.003    0.000000    0.000000    0.000000
   1 He    2.0000    0     4.003   10.865925    0.000000    0.000000

--------------------------------
INTERNAL COORDINATES (ANGSTROEM)
--------------------------------
 He     0   0   0     0.000000000000     0.00000000     0.00000000
 He     1   0   0     5.750000000000     0.00000000     0.00000000

---------------------------
INTERNAL COORDINATES (A.U.)
---------------------------
 He     0   0   0     0.000000000000     0.00000000     0.00000000
 He     1   0   0    10.865925270047     0.00000000     0.00000000

------------------------------------------------------------------------------
                   ___                                                        
                  /   \      - P O W E R E D   B Y -                         
                 /     \                                                     
                 |  |  |   _    _      __       _____    __    __             
                 |  |  |  | |  | |    /  \     |  _  \  |  |  /  |          
                  \  \/   | |  | |   /    \    | | | |  |  | /  /          
                 / \  \   | |__| |  /  /\  \   | |_| |  |  |/  /          
                |  |  |   |  __  | /  /__\  \  |    /   |      \           
                |  |  |   | |  | | |   __   |  |    \   |  |\   \          
                \     /   | |  | | |  |  |  |  | |\  \  |  | \   \       
                 \___/    |_|  |_| |__|  |__|  |_| \__\ |__|  \__/        
                                                                              
                      - O R C A' S   B I G   F R I E N D -                    
                                      &                                       
                       - I N T E G R A L  F E E D E R -                       
                                                                              
 v1 FN, 2020, v2 2021                                                         
------------------------------------------------------------------------------


Reading SHARK input file he2_0_1_wb97x_ma-def2-tzvpp_r.SHARKINP.tmp ... ok
----------------------
SHARK INTEGRAL PACKAGE
----------------------

Number of atoms                             ...      2
Number of basis functions                   ...     36
Number of shells                            ...     16
Maximum angular momentum                    ...      2
Integral batch strategy                     ... SHARK/LIBINT Hybrid
RI-J (if used) integral strategy            ... SPLIT-RIJ (Revised 2003 algorithm where possible)
Printlevel                                  ...      1
Contraction scheme used                     ... SEGMENTED contraction
Coulomb Range Separation                    ... NOT USED
Exchange Range Separation                   ... Long Range
   Mu parameter                             ...  0.300000
   Scaling (regular/separated)              ...  0.157706  0.842294
Finite Nucleus Model                        ... NOT USED
Auxiliary Coulomb fitting basis             ... AVAILABLE
   # of basis functions in Aux-J            ...     22
   # of shells in Aux-J                     ...     10
   Maximum angular momentum in Aux-J        ...      2
Auxiliary J/K fitting basis                 ... NOT available
Auxiliary Correlation fitting basis         ... NOT available
Auxiliary 'external' fitting basis          ... NOT available
Integral threshold                          ...     2.500000e-11
Primitive cut-off                           ...     2.500000e-12
Primitive pair pre-selection threshold      ...     2.500000e-12

Calculating pre-screening integrals         ... done (  0.0 sec) Dimension = 16
Organizing shell pair data                  ... done (  0.0 sec)
Shell pair information
Total number of shell pairs                 ...       136
Shell pairs after pre-screening             ...       109
Total number of primitive shell pairs       ...       216
Primitive shell pairs kept                  ...       157
          la=0 lb=0:     30 shell pairs
          la=1 lb=0:     40 shell pairs
          la=1 lb=1:     17 shell pairs
          la=2 lb=0:     12 shell pairs
          la=2 lb=1:      8 shell pairs
          la=2 lb=2:      2 shell pairs

Calculating one electron integrals          ... done (  0.0 sec)
Calculating RI/J V-Matrix + Cholesky decomp.... done (  0.0 sec)
Calculating Nuclear repulsion               ... done (  0.0 sec) ENN=      0.368123275339 Eh

SHARK setup successfully completed in   0.1 seconds

Maximum memory used throughout the entire GTOINT-calculation: 6.1 MB

Diagonalization of the overlap matrix:
Smallest eigenvalue                        ... 6.288e-02
Time for diagonalization                   ...    0.000 sec
Threshold for overlap eigenvalues          ... 1.000e-08
Number of eigenvalues below threshold      ... 0
Time for construction of square roots      ...    0.002 sec
Total time needed                          ...    0.003 sec

-------------------
DFT GRID GENERATION
-------------------

General Integration Accuracy     IntAcc      ... 4.388
Radial Grid Type                 RadialGrid  ... OptM3 with GC (2021)
Angular Grid (max. ang.)         AngularGrid ... 4 (Lebedev-302)
Angular grid pruning method      GridPruning ... 4 (adaptive)
Weight generation scheme         WeightScheme... Becke
Basis function cutoff            BFCut       ... 1.0000e-11
Integration weight cutoff        WCut        ... 1.0000e-14
Angular grids for H and He will be reduced by one unit
Partially contracted basis set               ... off
Rotationally invariant grid construction     ... off

Total number of grid points                  ...     6668
Total number of batches                      ...      106
Average number of points per batch           ...       62
Average number of grid points per atom       ...     3334
Time for grid setup =    0.032 sec

--------------------
COSX GRID GENERATION
--------------------

GRIDX 1
-------
General Integration Accuracy     IntAcc      ... 3.816
Radial Grid Type                 RadialGrid  ... OptM3 with GC (2021)
Angular Grid (max. ang.)         AngularGrid ... 1 (Lebedev-50)
Angular grid pruning method      GridPruning ... 4 (adaptive)
Weight generation scheme         WeightScheme... Becke
Basis function cutoff            BFCut       ... 1.0000e-11
Integration weight cutoff        WCut        ... 1.0000e-14
Angular grids for H and He will be reduced by one unit
Partially contracted basis set               ... on
Rotationally invariant grid construction     ... off

Total number of grid points                  ...      898
Total number of batches                      ...       16
Average number of points per batch           ...       56
Average number of grid points per atom       ...      449
UseSFitting                                  ... on

GRIDX 2
-------
General Integration Accuracy     IntAcc      ... 4.020
Radial Grid Type                 RadialGrid  ... OptM3 with GC (2021)
Angular Grid (max. ang.)         AngularGrid ... 2 (Lebedev-110)
Angular grid pruning method      GridPruning ... 4 (adaptive)
Weight generation scheme         WeightScheme... Becke
Basis function cutoff            BFCut       ... 1.0000e-11
Integration weight cutoff        WCut        ... 1.0000e-14
Angular grids for H and He will be reduced by one unit
Partially contracted basis set               ... on
Rotationally invariant grid construction     ... off

Total number of grid points                  ...     1640
Total number of batches                      ...       26
Average number of points per batch           ...       63
Average number of grid points per atom       ...      820
UseSFitting                                  ... on

GRIDX 3
-------
General Integration Accuracy     IntAcc      ... 4.338
Radial Grid Type                 RadialGrid  ... OptM3 with GC (2021)
Angular Grid (max. ang.)         AngularGrid ... 3 (Lebedev-194)
Angular grid pruning method      GridPruning ... 4 (adaptive)
Weight generation scheme         WeightScheme... Becke
Basis function cutoff            BFCut       ... 1.0000e-11
Integration weight cutoff        WCut        ... 1.0000e-14
Angular grids for H and He will be reduced by one unit
Partially contracted basis set               ... on
Rotationally invariant grid construction     ... off

Total number of grid points                  ...     3604
Total number of batches                      ...       58
Average number of points per batch           ...       62
Average number of grid points per atom       ...     1802
UseSFitting                                  ... on

Time for X-Grid setup             =    0.035 sec

--------------
SCF ITERATIONS
--------------
ITER       Energy         Delta-E        Max-DP      RMS-DP      [F,P]     Damp
               ***  Starting incremental Fock matrix formation  ***
  0     -5.8055231685   0.000000000000 0.00001481  0.00000077  0.0000550 0.7000
                 **** Energy Check signals convergence ****

               *****************************************************
               *                     SUCCESS                       *
               *           SCF CONVERGED AFTER   1 CYCLES          *
               *****************************************************

Old exchange energy                            =     -0.854812192 Eh
New exchange energy                            =     -0.854815671 Eh
Exchange energy change after final integration =     -0.000003479 Eh
Total energy after final integration           =     -5.805526650 Eh
Final COS-X integration done in                =     0.086 sec
Total Energy       :           -5.80552665 Eh            -157.97641 eV
  Last Energy change         ...   -2.5705e-09  Tolerance :   1.0000e-08
  Last MAX-Density change    ...    4.5257e-06  Tolerance :   1.0000e-07
             **** THE GBW FILE WAS UPDATED (he2_0_1_wb97x_ma-def2-tzvpp_r.gbw) ****
             **** DENSITY he2_0_1_wb97x_ma-def2-tzvpp_r.scfp WAS UPDATED ****
             **** ENERGY FILE WAS UPDATED (he2_0_1_wb97x_ma-def2-tzvpp_r.en.tmp) ****
----------------------
UHF SPIN CONTAMINATION
----------------------

Warning: in a DFT calculation there is little theoretical justification to 
         calculate <S**2> as in Hartree-Fock theory. We will do it anyways
         but you should keep in mind that the values have only limited relevance

Expectation value of <S**2>     :     0.000000
Ideal value S*(S+1) for S=0.0   :     0.000000
Deviation                       :     0.000000

             **** THE GBW FILE WAS UPDATED (he2_0_1_wb97x_ma-def2-tzvpp_r.gbw) ****
             **** DENSITY he2_0_1_wb97x_ma-def2-tzvpp_r.scfp WAS UPDATED ****
Total SCF time: 0 days 0 hours 0 min 0 sec 

Maximum memory used throughout the entire SCF-calculation: 40.6 MB

-------------------------   --------------------
FINAL SINGLE POINT ENERGY        -5.805526650386
-------------------------   --------------------

Storing actual gbw-file in he2_0_1_wb97x_ma-def2-tzvpp_r.004.gbw ... done

                            ***************************************
                            *     ORCA property calculations      *
                            ***************************************

                                    ---------------------
[...]
          la=2 lb=1:      6 shell pairs
          la=2 lb=2:      2 shell pairs

Calculating one electron integrals          ... done (  0.0 sec)
Calculating RI/J V-Matrix + Cholesky decomp.... done (  0.0 sec)
Calculating Nuclear repulsion               ... done (  0.0 sec) ENN=      0.211670883320 Eh

SHARK setup successfully completed in   0.1 seconds

Maximum memory used throughout the entire GTOINT-calculation: 6.1 MB

Diagonalization of the overlap matrix:
Smallest eigenvalue                        ... 6.389e-02
Time for diagonalization                   ...    0.000 sec
Threshold for overlap eigenvalues          ... 1.000e-08
Number of eigenvalues below threshold      ... 0
Time for construction of square roots      ...    0.003 sec
Total time needed                          ...    0.003 sec

-------------------
DFT GRID GENERATION
-------------------

General Integration Accuracy     IntAcc      ... 4.388
Radial Grid Type                 RadialGrid  ... OptM3 with GC (2021)
Angular Grid (max. ang.)         AngularGrid ... 4 (Lebedev-302)
Angular grid pruning method      GridPruning ... 4 (adaptive)
Weight generation scheme         WeightScheme... Becke
Basis function cutoff            BFCut       ... 1.0000e-11
Integration weight cutoff        WCut        ... 1.0000e-14
Angular grids for H and He will be reduced by one unit
Partially contracted basis set               ... off
Rotationally invariant grid construction     ... off

Total number of grid points                  ...     6668
Total number of batches                      ...      106
Average number of points per batch           ...       62
Average number of grid points per atom       ...     3334
Time for grid setup =    0.031 sec

--------------------
COSX GRID GENERATION
--------------------

GRIDX 1
-------
General Integration Accuracy     IntAcc      ... 3.816
Radial Grid Type                 RadialGrid  ... OptM3 with GC (2021)
Angular Grid (max. ang.)         AngularGrid ... 1 (Lebedev-50)
Angular grid pruning method      GridPruning ... 4 (adaptive)
Weight generation scheme         WeightScheme... Becke
Basis function cutoff            BFCut       ... 1.0000e-11
Integration weight cutoff        WCut        ... 1.0000e-14
Angular grids for H and He will be reduced by one unit
Partially contracted basis set               ... on
Rotationally invariant grid construction     ... off

Total number of grid points                  ...      900
Total number of batches                      ...       16
Average number of points per batch           ...       56
Average number of grid points per atom       ...      450
UseSFitting                                  ... on

GRIDX 2
-------
General Integration Accuracy     IntAcc      ... 4.020
Radial Grid Type                 RadialGrid  ... OptM3 with GC (2021)
Angular Grid (max. ang.)         AngularGrid ... 2 (Lebedev-110)
Angular grid pruning method      GridPruning ... 4 (adaptive)
Weight generation scheme         WeightScheme... Becke
Basis function cutoff            BFCut       ... 1.0000e-11
Integration weight cutoff        WCut        ... 1.0000e-14
Angular grids for H and He will be reduced by one unit
Partially contracted basis set               ... on
Rotationally invariant grid construction     ... off

Total number of grid points                  ...     1644
Total number of batches                      ...       26
Average number of points per batch           ...       63
Average number of grid points per atom       ...      822
UseSFitting                                  ... on

GRIDX 3
-------
General Integration Accuracy     IntAcc      ... 4.338
Radial Grid Type                 RadialGrid  ... OptM3 with GC (2021)
Angular Grid (max. ang.)         AngularGrid ... 3 (Lebedev-194)
Angular grid pruning method      GridPruning ... 4 (adaptive)
Weight generation scheme         WeightScheme... Becke
Basis function cutoff            BFCut       ... 1.0000e-11
Integration weight cutoff        WCut        ... 1.0000e-14
Angular grids for H and He will be reduced by one unit
Partially contracted basis set               ... on
Rotationally invariant grid construction     ... off

Total number of grid points                  ...     3610
Total number of batches                      ...       58
Average number of points per batch           ...       62
Average number of grid points per atom       ...     1805
UseSFitting                                  ... on

Time for X-Grid setup             =    0.037 sec

--------------
SCF ITERATIONS
--------------
ITER       Energy         Delta-E        Max-DP      RMS-DP      [F,P]     Damp
               ***  Starting incremental Fock matrix formation  ***
  0     -5.8055211427   0.000000000000 0.00000045  0.00000003  0.0000014 0.7000
                 **** Energy Check signals convergence ****

               *****************************************************
               *                     SUCCESS                       *
               *           SCF CONVERGED AFTER   1 CYCLES          *
               *****************************************************

Old exchange energy                            =     -0.854813871 Eh
New exchange energy                            =     -0.854813540 Eh
Exchange energy change after final integration =      0.000000331 Eh
Total energy after final integration           =     -5.805520812 Eh
Final COS-X integration done in                =     0.066 sec
Total Energy       :           -5.80552081 Eh            -157.97625 eV
  Last Energy change         ...   -5.0919e-12  Tolerance :   1.0000e-08
  Last MAX-Density change    ...    1.3545e-07  Tolerance :   1.0000e-07
             **** THE GBW FILE WAS UPDATED (he2_0_1_wb97x_ma-def2-tzvpp_r.gbw) ****
             **** DENSITY he2_0_1_wb97x_ma-def2-tzvpp_r.scfp WAS UPDATED ****
             **** ENERGY FILE WAS UPDATED (he2_0_1_wb97x_ma-def2-tzvpp_r.en.tmp) ****
----------------------
UHF SPIN CONTAMINATION
----------------------

Warning: in a DFT calculation there is little theoretical justification to 
         calculate <S**2> as in Hartree-Fock theory. We will do it anyways
         but you should keep in mind that the values have only limited relevance

Expectation value of <S**2>     :     0.000000
Ideal value S*(S+1) for S=0.0   :     0.000000
Deviation                       :     0.000000

             **** THE GBW FILE WAS UPDATED (he2_0_1_wb97x_ma-def2-tzvpp_r.gbw) ****
             **** DENSITY he2_0_1_wb97x_ma-def2-tzvpp_r.scfp WAS UPDATED ****
Total SCF time: 0 days 0 hours 0 min 0 sec 

Maximum memory used throughout the entire SCF-calculation: 40.5 MB

-------------------------   --------------------
FINAL SINGLE POINT ENERGY        -5.805520811651
-------------------------   --------------------

Storing actual gbw-file in he2_0_1_wb97x_ma-def2-tzvpp_r.021.gbw ... done

                            ***************************************
                            *     ORCA property calculations      *
                            ***************************************

                                    ---------------------
                                    Active property flags
                                    ---------------------
   (+) Dipole Moment


------------------------------------------------------------------------------
                       ORCA ELECTRIC PROPERTIES CALCULATION
------------------------------------------------------------------------------

Dipole Moment Calculation                       ... on
Quadrupole Moment Calculation                   ... off
Polarizability Calculation                      ... off
GBWName                                         ... he2_0_1_wb97x_ma-def2-tzvpp_r.gbw
Electron density                                ... he2_0_1_wb97x_ma-def2-tzvpp_r.scfp
The origin for moment calculation is the CENTER OF MASS  = ( 9.448631,  0.000000  0.000000)

-------------
DIPOLE MOMENT
-------------
                                X             Y             Z
Electronic contribution:     -0.00000       0.00000       0.00000
Nuclear contribution   :      0.00000       0.00000       0.00000
                        -----------------------------------------
Total Dipole Moment    :     -0.00000       0.00000       0.00000
                        -----------------------------------------
Magnitude (a.u.)       :      0.00000
Magnitude (Debye)      :      0.00000



--------------------
Rotational spectrum 
--------------------
 
Rotational constants in cm-1:     0.000000     0.084225     0.084225 
Rotational constants in MHz :     0.000000  2525.003646  2525.003646 

 Dipole components along the rotational axes: 
x,y,z [a.u.] :    -0.000000     0.000000     0.000000 
x,y,z [Debye]:    -0.000000     0.000000     0.000000 

 
                              **** TRAJECTORY DONE ***

                         SUMMARY OF THE CALCULATED SURFACE

------------------
TRAJECTORY RESULTS
------------------

Column   1: RHEHE

The Calculated Surface using the 'Actual Energy'
   5.00000000  -5.80551294
   5.25000000  -5.80551959
   5.50000000  -5.80552871
   5.75000000  -5.80552665
   6.00000000  -5.80552007
   6.25000000  -5.80551794
   6.50000000  -5.80551905
   6.75000000  -5.80552017
   7.00000000  -5.80552061
   7.25000000  -5.80552110
   7.50000000  -5.80552119
   7.75000000  -5.80552087
   8.00000000  -5.80552090
   8.25000000  -5.80552097
   8.50000000  -5.80552100
   8.75000000  -5.80552094
   9.00000000  -5.80552068
   9.25000000  -5.80552061
   9.50000000  -5.80552074
   9.75000000  -5.80552083
  10.00000000  -5.80552081

                        *******************************
                        *   FIT OF THE ACT-ENERGY PES *
                        *******************************
-------------------------------
POTENTIAL ENERGY SURFACE =   0
-------------------------------

Minimum found after 26 iterations
Equilibrium distance and its energy from the interpolated PES:
  Re      =   5.57185 Angstroem  ( 10.52926 Bohr)
  E(Re)   =    -5.805529 Eh 
  dE/dR   = -1.258e-10 (-2.750e-06 CHEB)
  d2E/dR2 =    0.000062 (   0.000014 CHEB) (   0.000011 NUM)
  d3E/dR3 =   -0.000130 (   0.000059 CHEB)

Spectroscopic constants:
  we =      28.6 cm**-1 (based on SPLINE)
  we =      13.4 cm**-1 (based on CHEB)
  we =      12.2 cm**-1 (based on NUM)

Performing Morse fit ...
Morse-Fit Results:
 Te(adiabatic)   =       1.8 cm**-1         =  0.000 eV
 d2E/dR**2 (Morse)=      0.000000029 
 d3E/dR**3 (Morse)=     -0.000000323 
 d4E/dR**4 (Morse)=      0.000002844 
 E0               =     -5.805521185 Eh  RMS=1.13e-09
 Re               =   5.63378 Angstroem      = 10.64630 Bohr RMS=4.88e-10)
 De(Morse)        =   0.00000 eV             =      0.0 cm**-1 RMS=8.46e-13
 D0(Morse)        =  -0.00004 eV
 beta             =   3.77520 au          RMS=4.65e-09
 we               =      0.6 cm**-1
 wexe             =    428.7 cm**-1
 Displacement   =    0.0619 Angstroem      =  0.11704 Bohr

Minimum found after 24 iterations
Equilibrium distance and its energy from the interpolated PES:
  Re      =   7.41356 Angstroem  ( 14.00959 Bohr)
  E(Re)   =    -5.805521 Eh 
  dE/dR   = 2.276e-11 (-7.275e-08 CHEB)
  d2E/dR2 =    0.000003 (  -0.000004 CHEB) (  -0.000002 NUM)
  d3E/dR3 =    0.000001 (  -0.000005 CHEB)

Spectroscopic constants:
  we =       6.1 cm**-1 (based on SPLINE)
  we =      -nan cm**-1 (based on CHEB)
  we =      -nan cm**-1 (based on NUM)

Performing Morse fit ...
Morse-Fit Results:
 Te(adiabatic)   =       1.8 cm**-1         =  0.000 eV
 d2E/dR**2 (Morse)=      0.000000086 
 d3E/dR**3 (Morse)=      0.000000000 
 d4E/dR**4 (Morse)=      0.000000000 
 E0               =     -5.805521136 Eh  RMS=3.59e-09
 Re               =   7.69799 Angstroem      = 14.54709 Bohr RMS=2.98e-07)
 De(Morse)        =  25.19174 eV             = 203185.1 cm**-1 RMS=7.29e-07
 D0(Morse)        =  25.19167 eV
 beta             =  -0.00022 au          RMS=5.20e-07
 we               =      1.1 cm**-1
 wexe             =      0.0 cm**-1
 Displacement   =    2.1261 Angstroem      =  4.01782 Bohr

Minimum found after 29 iterations
Equilibrium distance and its energy from the interpolated PES:
  Re      =   8.54986 Angstroem  ( 16.15690 Bohr)
  E(Re)   =    -5.805521 Eh 
  dE/dR   = 2.602e-11 (-7.143e-07 CHEB)
  d2E/dR2 =    0.000000 (   0.000004 CHEB) (   0.000002 NUM)
  d3E/dR3 =    0.000003 (   0.000024 CHEB)

Spectroscopic constants:
  we =       2.5 cm**-1 (based on SPLINE)
  we =       7.2 cm**-1 (based on CHEB)
  we =       5.7 cm**-1 (based on NUM)

Performing Morse fit ...
Morse-Fit Results:
 Te(adiabatic)   =       1.8 cm**-1         =  0.000 eV
 d2E/dR**2 (Morse)=      0.000000029 
 d3E/dR**3 (Morse)=      0.000000000 
 d4E/dR**4 (Morse)=      0.000000000 
 E0               =     -5.805520989 Eh  RMS=2.25e-09
 Re               =   8.81181 Angstroem      = 16.65191 Bohr RMS=4.60e-07)
 De(Morse)        =  21.12604 eV             = 170393.0 cm**-1 RMS=2.85e-07
 D0(Morse)        =  21.12600 eV
 beta             =  -0.00014 au          RMS=2.82e-07
 we               =      0.6 cm**-1
 wexe             =      0.0 cm**-1
 Displacement   =    3.2400 Angstroem      =  6.12265 Bohr

Minimum found after 22 iterations
Equilibrium distance and its energy from the interpolated PES:
  Re      =   9.80453 Angstroem  ( 18.52787 Bohr)
  E(Re)   =    -5.805521 Eh 
  dE/dR   = -4.642e-13 (2.881e-07 CHEB)
  d2E/dR2 =    0.000001 (   0.000001 CHEB) (  -0.000010 NUM)
  d3E/dR3 =   -0.000001 (   0.000094 CHEB)

Spectroscopic constants:
  we =       2.6 cm**-1 (based on SPLINE)
  we =       2.6 cm**-1 (based on CHEB)
  we =      -nan cm**-1 (based on NUM)

Performing Morse fit ...
Morse-Fit Results:
 Te(adiabatic)   =       1.8 cm**-1         =  0.000 eV
 d2E/dR**2 (Morse)=      0.000000013 
 d3E/dR**3 (Morse)=      0.000000000 
 d4E/dR**4 (Morse)=      0.000000000 
 E0               =     -5.805520976 Eh  RMS=2.36e-09
 Re               =   9.98706 Angstroem      = 18.87281 Bohr RMS=1.09e-06)
 De(Morse)        =  18.21563 eV             = 146919.0 cm**-1 RMS=1.10e-06
 D0(Morse)        =  18.21560 eV
 beta             =  -0.00010 au          RMS=5.10e-07
 we               =      0.4 cm**-1
 wexe             =      0.0 cm**-1
 Displacement   =    4.4152 Angstroem      =  8.34355 Bohr

The Calculated Surface using the SCF energy
   5.00000000  -5.80551294
   5.25000000  -5.80551959
   5.50000000  -5.80552871
   5.75000000  -5.80552665
   6.00000000  -5.80552007
   6.25000000  -5.80551794
   6.50000000  -5.80551905
   6.75000000  -5.80552017
   7.00000000  -5.80552061
   7.25000000  -5.80552110
   7.50000000  -5.80552119
   7.75000000  -5.80552087
   8.00000000  -5.80552090
   8.25000000  -5.80552097
   8.50000000  -5.80552100
   8.75000000  -5.80552094
   9.00000000  -5.80552068
   9.25000000  -5.80552061
   9.50000000  -5.80552074
   9.75000000  -5.80552083
  10.00000000  -5.80552081

                        *******************************
                        *       FIT OF THE SCF PES    *
                        *******************************
-------------------------------
POTENTIAL ENERGY SURFACE =   0
-------------------------------

Minimum found after 26 iterations
Equilibrium distance and its energy from the interpolated PES:
  Re      =   5.57185 Angstroem  ( 10.52926 Bohr)
  E(Re)   =    -5.805529 Eh 
  dE/dR   = -1.258e-10 (-2.750e-06 CHEB)
  d2E/dR2 =    0.000062 (   0.000014 CHEB) (   0.000011 NUM)
  d3E/dR3 =   -0.000130 (   0.000059 CHEB)

Spectroscopic constants:
  we =      28.6 cm**-1 (based on SPLINE)
  we =      13.4 cm**-1 (based on CHEB)
  we =      12.2 cm**-1 (based on NUM)

Performing Morse fit ...
Morse-Fit Results:
 Te(adiabatic)   =       1.8 cm**-1         =  0.000 eV
 d2E/dR**2 (Morse)=      0.000000029 
 d3E/dR**3 (Morse)=     -0.000000323 
 d4E/dR**4 (Morse)=      0.000002844 
 E0               =     -5.805521185 Eh  RMS=1.13e-09
 Re               =   5.63378 Angstroem      = 10.64630 Bohr RMS=4.88e-10)
 De(Morse)        =   0.00000 eV             =      0.0 cm**-1 RMS=8.46e-13
 D0(Morse)        =  -0.00004 eV
 beta             =   3.77520 au          RMS=4.65e-09
 we               =      0.6 cm**-1
 wexe             =    428.7 cm**-1
 Displacement   =    0.0619 Angstroem      =  0.11704 Bohr

Minimum found after 24 iterations
Equilibrium distance and its energy from the interpolated PES:
  Re      =   7.41356 Angstroem  ( 14.00959 Bohr)
  E(Re)   =    -5.805521 Eh 
  dE/dR   = 2.276e-11 (-7.275e-08 CHEB)
  d2E/dR2 =    0.000003 (  -0.000004 CHEB) (  -0.000002 NUM)
  d3E/dR3 =    0.000001 (  -0.000005 CHEB)

Spectroscopic constants:
  we =       6.1 cm**-1 (based on SPLINE)
  we =      -nan cm**-1 (based on CHEB)
  we =      -nan cm**-1 (based on NUM)

Performing Morse fit ...
Morse-Fit Results:
 Te(adiabatic)   =       1.8 cm**-1         =  0.000 eV
 d2E/dR**2 (Morse)=      0.000000086 
 d3E/dR**3 (Morse)=      0.000000000 
 d4E/dR**4 (Morse)=      0.000000000 
 E0               =     -5.805521136 Eh  RMS=3.59e-09
 Re               =   7.69799 Angstroem      = 14.54709 Bohr RMS=2.98e-07)
 De(Morse)        =  25.19174 eV             = 203185.1 cm**-1 RMS=7.29e-07
 D0(Morse)        =  25.19167 eV
 beta             =  -0.00022 au          RMS=5.20e-07
 we               =      1.1 cm**-1
 wexe             =      0.0 cm**-1
 Displacement   =    2.1261 Angstroem      =  4.01782 Bohr

Minimum found after 29 iterations
Equilibrium distance and its energy from the interpolated PES:
  Re      =   8.54986 Angstroem  ( 16.15690 Bohr)
  E(Re)   =    -5.805521 Eh 
  dE/dR   = 2.602e-11 (-7.143e-07 CHEB)
  d2E/dR2 =    0.000000 (   0.000004 CHEB) (   0.000002 NUM)
  d3E/dR3 =    0.000003 (   0.000024 CHEB)

Spectroscopic constants:
  we =       2.5 cm**-1 (based on SPLINE)
  we =       7.2 cm**-1 (based on CHEB)
  we =       5.7 cm**-1 (based on NUM)

Performing Morse fit ...
Morse-Fit Results:
 Te(adiabatic)   =       1.8 cm**-1         =  0.000 eV
 d2E/dR**2 (Morse)=      0.000000029 
 d3E/dR**3 (Morse)=      0.000000000 
 d4E/dR**4 (Morse)=      0.000000000 
 E0               =     -5.805520989 Eh  RMS=2.25e-09
 Re               =   8.81181 Angstroem      = 16.65191 Bohr RMS=4.60e-07)
 De(Morse)        =  21.12604 eV             = 170393.0 cm**-1 RMS=2.85e-07
 D0(Morse)        =  21.12600 eV
 beta             =  -0.00014 au          RMS=2.82e-07
 we               =      0.6 cm**-1
 wexe             =      0.0 cm**-1
 Displacement   =    3.2400 Angstroem      =  6.12265 Bohr

Minimum found after 22 iterations
Equilibrium distance and its energy from the interpolated PES:
  Re      =   9.80453 Angstroem  ( 18.52787 Bohr)
  E(Re)   =    -5.805521 Eh 
  dE/dR   = -4.642e-13 (2.881e-07 CHEB)
  d2E/dR2 =    0.000001 (   0.000001 CHEB) (  -0.000010 NUM)
  d3E/dR3 =   -0.000001 (   0.000094 CHEB)

Spectroscopic constants:
  we =       2.6 cm**-1 (based on SPLINE)
  we =       2.6 cm**-1 (based on CHEB)
  we =      -nan cm**-1 (based on NUM)

Performing Morse fit ...
Morse-Fit Results:
 Te(adiabatic)   =       1.8 cm**-1         =  0.000 eV
 d2E/dR**2 (Morse)=      0.000000013 
 d3E/dR**3 (Morse)=      0.000000000 
 d4E/dR**4 (Morse)=      0.000000000 
 E0               =     -5.805520976 Eh  RMS=2.36e-09
 Re               =   9.98706 Angstroem      = 18.87281 Bohr RMS=1.09e-06)
 De(Morse)        =  18.21563 eV             = 146919.0 cm**-1 RMS=1.10e-06
 D0(Morse)        =  18.21560 eV
 beta             =  -0.00010 au          RMS=5.10e-07
 we               =      0.4 cm**-1
 wexe             =      0.0 cm**-1
 Displacement   =    4.4152 Angstroem      =  8.34355 Bohr


Timings for individual modules:

Sum of individual times         ...       16.971 sec (=   0.283 min)
GTO integral calculation        ...        3.276 sec (=   0.055 min)  19.3 %
SCF iterations                  ...       13.695 sec (=   0.228 min)  80.7 %
                             ****ORCA TERMINATED NORMALLY****
TOTAL RUN TIME: 0 days 0 hours 0 minutes 20 seconds 546 msec
