156
# ORCA position Step 10, E_Pot=-422.89747602 Hartree
 C      3.2583140146      3.4060290153      6.8228060306
 C      2.6837970120      4.3067210193      5.9259640265
 C      3.1333190140      5.6269860252      5.8848720264
 H      2.9132632200      2.3658158887      6.8552132832
 H      1.8748959052      3.9899003146      5.2584809755
 H      2.6847891608      6.3305520287      5.1754033314
 C      4.1509860186      6.0480710271      6.7389940302
 C      4.7255030212      5.1473790231      7.6358360342
 C      4.2759810192      3.8271140171      7.6769280344
 H      4.4960370392      7.0882846930      6.7065870247
 H      5.5344034375      5.4641993838      8.3033187409
 H      4.7245101612      3.1235489147      8.3863957548
 C     -0.4463360020      1.3210210059      6.7389940302
 C     -1.0208530046      0.4203290019      7.6358360342
 C     -0.5713310026     -0.8999360040      7.6769280344
 H     -0.7882693727      2.3446646733      6.7069310415
 H     -1.8145568168      0.7428631195      8.2925411157
 H     -1.0135465592     -1.5970348631      8.3729917687
 C      0.4463360020     -1.3210210059      6.8228060306
 C      1.0208530046     -0.4203290019      5.9259640265
 C      0.5713310026      0.8999360040      5.8848720264
 H      0.7877774907     -2.3449542465      6.8526202737
 H      1.8143664249     -0.7380690925      5.2667326434
 H      1.0149968995      1.5925976467      5.1866504885
 C     -0.4463360020     10.7751210483      6.7389940302
 C     -1.0208530046      9.8744290442      7.6358360342
 C     -0.5713310026      8.5541640383      7.6769280344
 H     -0.7921530668     11.7974875332      6.7057426041
 H     -1.8115828344     10.1977588235      8.2957101112
 H     -1.0114781412      7.8533731167      8.3708542425
 C      0.4463360020      8.1330790364      6.8228060306
 C      1.0208530046      9.0337710405      5.9259640265
 C      0.5713310026     10.3540360464      5.8848720264
 H      0.7890120718      7.1094075281      6.8570806542
 H      1.8186085103      8.7207657945      5.2700991262
 H      1.0178524998     11.0472698389      5.1888485510
 C      6.9629640312      1.3210210059      6.7389940302
 C      6.3884470286      0.4203290019      7.6358360342
 C      6.8379690306     -0.8999360040      7.6769280344
 H      6.6202880975      2.3446925272      6.7047194625
 H      5.5906914967      0.7333342644      8.2917008057
 H      6.3914475765     -1.5931698875      8.3729514130
 C      7.8556360352     -1.3210210059      6.8228060306
 C      8.4301530378     -0.4203290019      5.9259640265
 C      7.9806310357      0.8999360040      5.8848720264
 H      8.2014530710     -2.3433875067      6.8560574192
 H      9.2208829065     -0.7436587597      5.2660899789
 H      8.4207782173      1.6007268851      5.1909458048
 C      6.9629640312     10.7751210483      6.7389940302
 C      6.3884470286      9.8744290442      7.6358360342
 C      6.8379690306      8.5541640383      7.6769280344
 H      6.6215225681     11.7990543002      6.7091798116
 H      5.5949336291     10.1921691370      8.2950674276
 H      6.3943032992      7.8615023836      8.3751496847
 C      7.8556360352      8.1330790364      6.8228060306
 C      8.4301530378      9.0337710405      5.9259640265
 C      7.9806310357     10.3540360464      5.8848720264
 H      8.1975694312      7.1094353937      6.8548688685
 H      9.2238569165      8.7112369905      5.2692590115
 H      8.4228466049     11.0511349145      5.1888083038
 C      4.1509860186     -1.3210210059      3.3485440150
 C      4.7255030212     -0.4203290019      4.2453860190
 C      4.2759810192      0.8999360040      4.2864780192
 H      4.4965560713     -2.3432913908      3.3146797363
 H      5.5162015330     -0.7389698754      4.9074177476
 H      4.7164861053      1.5923136609      4.9868519348
 C      3.2583140146      1.3210210059      3.4323560154
 C      2.6837970120      0.4203290019      2.5355140114
 C      3.1333190140     -0.8999360040      2.4944220112
 H      2.9208196048      2.3463945458      3.4653077504
 H      1.8905653994      0.7386943696      1.8763176360
 H      2.6897498407     -1.5976016620      1.7997162668
 C      4.1509860186     -1.3210210059     10.1294440454
 C      4.7255030212     -0.4203290019     11.0262860494
 C      4.2759810192      0.8999360040     11.0673780496
 H      4.4928238602     -2.3450122993     10.1002472682
 H      5.5178419516     -0.7426627249     11.6850358621
 H      4.7169726508      1.5941964443     11.7667183059
 C      3.2583140146      1.3210210059     10.2132560457
 C      2.6837970120      0.4203290019      9.3164140417
 C      3.1333190140     -0.8999360040      9.2753220415
 H      2.9089753766      2.3426800338     10.2478954856
 H      1.8892405750      0.7354703558      8.6580321717
 H      2.6890018946     -1.5919882874      8.5768326517
 C      4.1509860186      8.1330790364      3.3485440150
 C      4.7255030212      9.0337710405      4.2453860190
 C      4.2759810192     10.3540360464      4.2864780192
 H      4.5003246366      7.1114199951      3.3139046440
 H      5.5200594066      8.7186295880      4.9037678884
 H      4.7202981345     11.0460883536      4.9849673811
 C      3.2583140146     10.7751210483      3.4323560154
 C      2.6837970120      9.8744290442      2.5355140114
 C      3.1333190140      8.5541640383      2.4944220112
 H      2.9164761841     11.7991123456      3.4615527829
 H      1.8914580811     10.1967627468      1.8767641853
 H      2.6923273372      7.8599035603      1.7950818016
 C      4.1509860186      8.1330790364     10.1294440454
 C      4.7255030212      9.0337710405     11.0262860494
 C      4.2759810192     10.3540360464     11.0673780496
 H      4.4884803903      7.1077054908     10.0964923397
 H      5.5187346280      8.7154056661     11.6854824320
 H      4.7195501623     11.0517017384     11.7620837649
 C      3.2583140146     10.7751210483     10.2132560457
 C      2.6837970120      9.8744290442      9.3164140417
 C      3.1333190140      8.5541640383      9.2753220415
 H      2.9127439430     11.7973914225     10.2471203595
 H      1.8930984190     10.1930697994      8.6543822592
 H      2.6928137857      7.8617864001      8.5749481656
 C      0.4463360020      6.0480710271      3.4323560154
 C      1.0208530046      5.1473790231      2.5355140114
 C      0.5713310026      3.8271140171      2.4944220112
 H      0.7850559387      7.0727915052      3.4658755634
 H      1.8152920726      5.4652243971      1.8772531460
 H      1.0127451532      3.1324219250      1.7956846306
 C     -0.4463360020      3.4060290153      3.3485440150
 C     -1.0208530046      4.3067210193      4.2453860190
 C     -0.5713310026      5.6269860252      4.2864780192
 H     -0.7923670991      2.3834943362      3.3158366653
 H     -1.8141196176      3.9838316908      4.9022857876
 H     -1.0112074342      6.3274432325      4.9807116415
 C      0.4463360020      6.0480710271     10.2132560457
 C      1.0208530046      5.1473790231      9.3164140417
 C      0.5713310026      3.8271140171      9.2753220415
 H      0.7972692933      7.0689360348     10.2492600145
 H      1.8167456572      5.4617353777      8.6584774821
 H      1.0137571801      3.1352579389      8.5752436525
 C     -0.4463360020      3.4060290153     10.1294440454
 C     -1.0208530046      4.3067210193     11.0262860494
 C     -0.5713310026      5.6269860252     11.0673780496
 H     -0.7860355902      2.3820290168     10.0960536451
 H     -1.8119686459      3.9836111302     11.6859324135
 H     -1.0136157021      6.3251151073     11.7623939492
 C      7.8556360352      6.0480710271      3.4323560154
 C      8.4301530378      5.1473790231      2.5355140114
 C      7.9806310357      3.8271140171      2.4944220112
 H      8.1953356274      7.0720710262      3.4657463819
 H      9.2212686647      5.4704889428      1.8758676500
 H      8.4229157188      3.1289849291      1.7994061064
 C      6.9629640312      3.4060290153      3.3485440150
 C      6.3884470286      4.3067210193      4.2453860190
 C      6.8379690306      5.6269860252      4.2864780192
 H      6.6120307647      2.3851640054      3.3125400109
 H      5.5925542445      3.9923648061      4.9033224683
 H      6.3955428136      6.3188420983      4.9865563980
 C      7.8556360352      6.0480710271     10.2132560457
 C      8.4301530378      5.1473790231      9.3164140417
 C      7.9806310357      3.8271140171      9.2753220415
 H      8.2016671397      7.0706057028     10.2459634376
 H      9.2234198085      5.4702682352      8.6595144334
 H      8.4205074606      3.1266568294      8.5810883897
 C      6.9629640312      3.4060290153     10.1294440454
 C      6.3884470286      4.3067210193     11.0262860494
 C      6.8379690306      5.6269860252     11.0673780496
 H      6.6242442690      2.3813085103     10.0959245700
 H      5.5940080054      3.9888757055     11.6845469853
 H      6.3965548819      6.3216781355     11.7661154130
