156
# ORCA Minimization Position Step 1, E_Pot=-422.89199220 Hartree, Unit is Angstrom
 C      3.2583140146      3.4060290153      6.8228060306
 C      2.6837970120      4.3067210193      5.9259640265
 C      3.1333190140      5.6269860252      5.8848720264
 H      2.9259330131      2.3862150107      6.8676960308
 H      1.8886310085      4.0000300179      5.2687590236
 H      2.6969850121      6.3153390283      5.1934910233
 C      4.1509860186      6.0480710271      6.7389940302
 C      4.7255030212      5.1473790231      7.6358360342
 C      4.2759810192      3.8271140171      7.6769280344
 H      4.4833670201      7.0678850317      6.6941040300
 H      5.5206690247      5.4540700244      8.2930410371
 H      4.7123150211      3.1387610141      8.3683090375
 C     -0.4463360020      1.3210210059      6.7389940302
 C     -1.0208530046      0.4203290019      7.6358360342
 C     -0.5713310026     -0.8999360040      7.6769280344
 H     -0.7787170035      2.3408350105      6.6941040300
 H     -1.8160190081      0.7270200033      8.2930410371
 H     -1.0076650045     -1.5882890071      8.3683090375
 C      0.4463360020     -1.3210210059      6.8228060306
 C      1.0208530046     -0.4203290019      5.9259640265
 C      0.5713310026      0.8999360040      5.8848720264
 H      0.7787170035     -2.3408350105      6.8676960308
 H      1.8160190081     -0.7270200033      5.2687590236
 H      1.0076650045      1.5882890071      5.1934910233
 C     -0.4463360020     10.7751210483      6.7389940302
 C     -1.0208530046      9.8744290442      7.6358360342
 C     -0.5713310026      8.5541640383      7.6769280344
 H     -0.7787170035     11.7949350528      6.6941040300
 H     -1.8160190081     10.1811200456      8.2930410371
 H     -1.0076650045      7.8658110352      8.3683090375
 C      0.4463360020      8.1330790364      6.8228060306
 C      1.0208530046      9.0337710405      5.9259640265
 C      0.5713310026     10.3540360464      5.8848720264
 H      0.7787170035      7.1132650319      6.8676960308
 H      1.8160190081      8.7270800391      5.2687590236
 H      1.0076650045     11.0423890495      5.1934910233
 C      6.9629640312      1.3210210059      6.7389940302
 C      6.3884470286      0.4203290019      7.6358360342
 C      6.8379690306     -0.8999360040      7.6769280344
 H      6.6305830297      2.3408350105      6.6941040300
 H      5.5932810251      0.7270200033      8.2930410371
 H      6.4016350287     -1.5882890071      8.3683090375
 C      7.8556360352     -1.3210210059      6.8228060306
 C      8.4301530378     -0.4203290019      5.9259640265
 C      7.9806310357      0.8999360040      5.8848720264
 H      8.1880170367     -2.3408350105      6.8676960308
 H      9.2253190413     -0.7270200033      5.2687590236
 H      8.4169650377      1.5882890071      5.1934910233
 C      6.9629640312     10.7751210483      6.7389940302
 C      6.3884470286      9.8744290442      7.6358360342
 C      6.8379690306      8.5541640383      7.6769280344
 H      6.6305830297     11.7949350528      6.6941040300
 H      5.5932810251     10.1811200456      8.2930410371
 H      6.4016350287      7.8658110352      8.3683090375
 C      7.8556360352      8.1330790364      6.8228060306
 C      8.4301530378      9.0337710405      5.9259640265
 C      7.9806310357     10.3540360464      5.8848720264
 H      8.1880170367      7.1132650319      6.8676960308
 H      9.2253190413      8.7270800391      5.2687590236
 H      8.4169650377     11.0423890495      5.1934910233
 C      4.1509860186     -1.3210210059      3.3485440150
 C      4.7255030212     -0.4203290019      4.2453860190
 C      4.2759810192      0.8999360040      4.2864780192
 H      4.4833670201     -2.3408350105      3.3036540148
 H      5.5206690247     -0.7270200033      4.9025910220
 H      4.7123150211      1.5882890071      4.9778590223
 C      3.2583140146      1.3210210059      3.4323560154
 C      2.6837970120      0.4203290019      2.5355140114
 C      3.1333190140     -0.8999360040      2.4944220112
 H      2.9259330131      2.3408350105      3.4772460156
 H      1.8886310085      0.7270200033      1.8783090084
 H      2.6969850121     -1.5882890071      1.8030410081
 C      4.1509860186     -1.3210210059     10.1294440454
 C      4.7255030212     -0.4203290019     11.0262860494
 C      4.2759810192      0.8999360040     11.0673780496
 H      4.4833670201     -2.3408350105     10.0845540452
 H      5.5206690247     -0.7270200033     11.6834910523
 H      4.7123150211      1.5882890071     11.7587590527
 C      3.2583140146      1.3210210059     10.2132560457
 C      2.6837970120      0.4203290019      9.3164140417
 C      3.1333190140     -0.8999360040      9.2753220415
 H      2.9259330131      2.3408350105     10.2581460459
 H      1.8886310085      0.7270200033      8.6592090388
 H      2.6969850121     -1.5882890071      8.5839410384
 C      4.1509860186      8.1330790364      3.3485440150
 C      4.7255030212      9.0337710405      4.2453860190
 C      4.2759810192     10.3540360464      4.2864780192
 H      4.4833670201      7.1132650319      3.3036540148
 H      5.5206690247      8.7270800391      4.9025910220
 H      4.7123150211     11.0423890495      4.9778590223
 C      3.2583140146     10.7751210483      3.4323560154
 C      2.6837970120      9.8744290442      2.5355140114
 C      3.1333190140      8.5541640383      2.4944220112
 H      2.9259330131     11.7949350528      3.4772460156
 H      1.8886310085     10.1811200456      1.8783090084
 H      2.6969850121      7.8658110352      1.8030410081
 C      4.1509860186      8.1330790364     10.1294440454
 C      4.7255030212      9.0337710405     11.0262860494
 C      4.2759810192     10.3540360464     11.0673780496
 H      4.4833670201      7.1132650319     10.0845540452
 H      5.5206690247      8.7270800391     11.6834910523
 H      4.7123150211     11.0423890495     11.7587590527
 C      3.2583140146     10.7751210483     10.2132560457
 C      2.6837970120      9.8744290442      9.3164140417
 C      3.1333190140      8.5541640383      9.2753220415
 H      2.9259330131     11.7949350528     10.2581460459
 H      1.8886310085     10.1811200456      8.6592090388
 H      2.6969850121      7.8658110352      8.5839410384
 C      0.4463360020      6.0480710271      3.4323560154
 C      1.0208530046      5.1473790231      2.5355140114
 C      0.5713310026      3.8271140171      2.4944220112
 H      0.7787170035      7.0678850317      3.4772460156
 H      1.8160190081      5.4540700244      1.8783090084
 H      1.0076650045      3.1387610141      1.8030410081
 C     -0.4463360020      3.4060290153      3.3485440150
 C     -1.0208530046      4.3067210193      4.2453860190
 C     -0.5713310026      5.6269860252      4.2864780192
 H     -0.7787170035      2.3862150107      3.3036540148
 H     -1.8160190081      4.0000300179      4.9025910220
 H     -1.0076650045      6.3153390283      4.9778590223
 C      0.4463360020      6.0480710271     10.2132560457
 C      1.0208530046      5.1473790231      9.3164140417
 C      0.5713310026      3.8271140171      9.2753220415
 H      0.7787170035      7.0678850317     10.2581460459
 H      1.8160190081      5.4540700244      8.6592090388
 H      1.0076650045      3.1387610141      8.5839410384
 C     -0.4463360020      3.4060290153     10.1294440454
 C     -1.0208530046      4.3067210193     11.0262860494
 C     -0.5713310026      5.6269860252     11.0673780496
 H     -0.7787170035      2.3862150107     10.0845540452
 H     -1.8160190081      4.0000300179     11.6834910523
 H     -1.0076650045      6.3153390283     11.7587590527
 C      7.8556360352      6.0480710271      3.4323560154
 C      8.4301530378      5.1473790231      2.5355140114
 C      7.9806310357      3.8271140171      2.4944220112
 H      8.1880170367      7.0678850317      3.4772460156
 H      9.2253190413      5.4540700244      1.8783090084
 H      8.4169650377      3.1387610141      1.8030410081
 C      6.9629640312      3.4060290153      3.3485440150
 C      6.3884470286      4.3067210193      4.2453860190
 C      6.8379690306      5.6269860252      4.2864780192
 H      6.6305830297      2.3862150107      3.3036540148
 H      5.5932810251      4.0000300179      4.9025910220
 H      6.4016350287      6.3153390283      4.9778590223
 C      7.8556360352      6.0480710271     10.2132560457
 C      8.4301530378      5.1473790231      9.3164140417
 C      7.9806310357      3.8271140171      9.2753220415
 H      8.1880170367      7.0678850317     10.2581460459
 H      9.2253190413      5.4540700244      8.6592090388
 H      8.4169650377      3.1387610141      8.5839410384
 C      6.9629640312      3.4060290153     10.1294440454
 C      6.3884470286      4.3067210193     11.0262860494
 C      6.8379690306      5.6269860252     11.0673780496
 H      6.6305830297      2.3862150107     10.0845540452
 H      5.5932810251      4.0000300179     11.6834910523
 H      6.4016350287      6.3153390283     11.7587590527
156
# ORCA Minimization Position Step 2, E_Pot=-422.89211173 Hartree, Unit is Angstrom
 C      3.2583140146      3.4060290153      6.8228060306
 C      2.6837970120      4.3067210193      5.9259640265
 C      3.1333190140      5.6269860252      5.8848720264
 H      2.9258273329      2.3859338159      6.8676852397
 H      1.8884439729      3.9999483641      5.2686065481
 H      2.6968396206      6.3155612866      5.1932635294
 C      4.1509860186      6.0480710271      6.7389940302
 C      4.7255030212      5.1473790231      7.6358360342
 C      4.2759810192      3.8271140171      7.6769280344
 H      4.4834727000      7.0681662263      6.6941148211
 H      5.5208560599      5.4541516784      8.2931935126
 H      4.7124604123      3.1385387556      8.3685365312
 C     -0.4463360020      1.3210210059      6.7389940302
 C     -1.0208530046      0.4203290019      7.6358360342
 C     -0.5713310026     -0.8999360040      7.6769280344
 H     -0.7787564305      2.3409048074      6.6941232748
 H     -1.8160443745      0.7270587631      8.2930607214
 H     -1.0077227301     -1.5883804321      8.3683945516
 C      0.4463360020     -1.3210210059      6.8228060306
 C      1.0208530046     -0.4203290019      5.9259640265
 C      0.5713310026      0.8999360040      5.8848720264
 H      0.7787566442     -2.3409057379      6.8676732648
 H      1.8160440060     -0.7270499902      5.2687354824
 H      1.0077224050      1.5883671115      5.1934082967
 C     -0.4463360020     10.7751210483      6.7389940302
 C     -1.0208530046      9.8744290442      7.6358360342
 C     -0.5713310026      8.5541640383      7.6769280344
 H     -0.7787625789     11.7950035755      6.6941222995
 H     -1.8160400681     10.1811597097      8.2930645829
 H     -1.0077196501      7.8657116690      8.3683918063
 C      0.4463360020      8.1330790364      6.8228060306
 C      1.0208530046      9.0337710405      5.9259640265
 C      0.5713310026     10.3540360464      5.8848720264
 H      0.7787581267      7.1131915091      6.8676805547
 H      1.8160470773      8.7270584895      5.2687406715
 H      1.0077268945     11.0424685285      5.1934095375
 C      6.9629640312      1.3210210059      6.7389940302
 C      6.3884470286      0.4203290019      7.6358360342
 C      6.8379690306     -0.8999360040      7.6769280344
 H      6.6305419068      2.3409085328      6.6941195061
 H      5.5932529562      0.7270415528      8.2930593887
 H      6.4015731388     -1.5883684862      8.3683905229
 C      7.8556360352     -1.3210210059      6.8228060306
 C      8.4301530378     -0.4203290019      5.9259640265
 C      7.9806310357      0.8999360040      5.8848720264
 H      8.1880626121     -2.3409035332      6.8676777611
 H      9.2253401014     -0.7270596674      5.2687354778
 H      8.4170196833      1.5883883732      5.1934082544
 C      6.9629640312     10.7751210483      6.7389940302
 C      6.3884470286      9.8744290442      7.6358360342
 C      6.8379690306      8.5541640383      7.6769280344
 H      6.6305433891     11.7950057803      6.6941267960
 H      5.5932560273     10.1811500325      8.2930645783
 H      6.4015776284      7.8657329307      8.3683917642
 C      7.8556360352      8.1330790364      6.8228060306
 C      8.4301530378      9.0337710405      5.9259640265
 C      7.9806310357     10.3540360464      5.8848720264
 H      8.1880564637      7.1131952352      6.8676767857
 H      9.2253444076      8.7270412794      5.2687393395
 H      8.4170227633     11.0424804744      5.1934055092
 C      4.1509860186     -1.3210210059      3.3485440150
 C      4.7255030212     -0.4203290019      4.2453860190
 C      4.2759810192      0.8999360040      4.2864780192
 H      4.4834116398     -2.3409020258      3.3036715026
 H      5.5206894422     -0.7270508248      4.9026177994
 H      4.7123680004      1.5883668388      4.9779441424
 C      3.2583140146      1.3210210059      3.4323560154
 C      2.6837970120      0.4203290019      2.5355140114
 C      3.1333190140     -0.8999360040      2.4944220112
 H      2.9258998276      2.3409099463      3.4772293795
 H      1.8886069019      0.7270509957      1.8782856469
 H      2.6969251728     -1.5883817515      1.8029569619
 C      4.1509860186     -1.3210210059     10.1294440454
 C      4.7255030212     -0.4203290019     11.0262860494
 C      4.2759810192      0.8999360040     11.0673780496
 H      4.4834078728     -2.3409070159     10.0845775620
 H      5.5206943052     -0.7270588559     11.6835145830
 H      4.7123711705      1.5883743991     11.7588471031
 C      3.2583140146      1.3210210059     10.2132560457
 C      2.6837970120      0.4203290019      9.3164140417
 C      3.1333190140     -0.8999360040      9.2753220415
 H      2.9258807959      2.3409077550     10.2581287866
 H      1.8886086754      0.7270440408      8.6591884502
 H      2.6969263088     -1.5883660738      8.5838566562
 C      4.1509860186      8.1330790364      3.3485440150
 C      4.7255030212      9.0337710405      4.2453860190
 C      4.2759810192     10.3540360464      4.2864780192
 H      4.4834192373      7.1131922872      3.3036712742
 H      5.5206913577      8.7270560014      4.9026116104
 H      4.7123737243     11.0424661162      4.9779434044
 C      3.2583140146     10.7751210483      3.4323560154
 C      2.6837970120      9.8744290442      2.5355140114
 C      3.1333190140      8.5541640383      2.4944220112
 H      2.9258921604     11.7950070582      3.4772224988
 H      1.8886057280     10.1811588982      1.8782854778
 H      2.6969288626      7.8657256431      1.8029529576
 C      4.1509860186      8.1330790364     10.1294440454
 C      4.7255030212      9.0337710405     11.0262860494
 C      4.2759810192     10.3540360464     11.0673780496
 H      4.4834002055      7.1131900963     10.0845706812
 H      5.5206931312      8.7270490466     11.6835144138
 H      4.7123748603     11.0424817939     11.7588430987
 C      3.2583140146     10.7751210483     10.2132560457
 C      2.6837970120      9.8744290442      9.3164140417
 C      3.1333190140      8.5541640383      9.2753220415
 H      2.9258883934     11.7950020681     10.2581285582
 H      1.8886105904     10.1811508671      8.6591822608
 H      2.6969320324      7.8657332033      8.5838559181
 C      0.4463360020      6.0480710271      3.4323560154
 C      1.0208530046      5.1473790231      2.5355140114
 C      0.5713310026      3.8271140171      2.4944220112
 H      0.7787517299      7.0679571659      3.4772304347
 H      1.8160459600      5.4541008583      1.8782860784
 H      1.0077217155      3.1386743199      1.8029531815
 C     -0.4463360020      3.4060290153      3.3485440150
 C     -1.0208530046      4.3067210193      4.2453860190
 C     -0.5713310026      5.6269860252      4.2864780192
 H     -0.7787637049      2.3861437374      3.3036733283
 H     -1.8160427905      3.9999910388      4.9026102108
 H     -1.0077184812      6.3154369977      4.9779416001
 C      0.4463360020      6.0480710271     10.2132560457
 C      1.0208530046      5.1473790231      9.3164140417
 C      0.5713310026      3.8271140171      9.2753220415
 H      0.7787710603      7.0679550245     10.2581305996
 H      1.8160469684      5.4540941414      8.6591860651
 H      1.0077214950      3.1386828268      8.5838545504
 C     -0.4463360020      3.4060290153     10.1294440454
 C     -1.0208530046      4.3067210193     11.0262860494
 C     -0.5713310026      5.6269860252     11.0673780496
 H     -0.7787515606      2.3861481619     10.0845704841
 H     -1.8160413217      3.9999904307     11.6835148022
 H     -1.0077228659      6.3154325004     11.7588428192
 C      7.8556360352      6.0480710271      3.4323560154
 C      8.4301530378      5.1473790231      2.5355140114
 C      7.9806310357      3.8271140171      2.4944220112
 H      8.1880515938      7.0679518804      3.4772295766
 H      9.2253413549      5.4541096117      1.8782852586
 H      8.4170228990      3.1386675419      1.8029572415
 C      6.9629640312      3.4060290153      3.3485440150
 C      6.3884470286      4.3067210193      4.2453860190
 C      6.8379690306      5.6269860252      4.2864780192
 H      6.6305289729      2.3861450179      3.3036694611
 H      5.5932530648      4.0000059013      4.9026139954
 H      6.4015785381      6.3154172156      4.9779455104
 C      7.8556360352      6.0480710271     10.2132560457
 C      8.4301530378      5.1473790231      9.3164140417
 C      7.9806310357      3.8271140171      9.2753220415
 H      8.1880637381      7.0679563049     10.2581267325
 H      9.2253428238      5.4541090033      8.6591898502
 H      8.4170185144      3.1386630446      8.5838584605
 C      6.9629640312      3.4060290153     10.1294440454
 C      6.3884470286      4.3067210193     11.0262860494
 C      6.8379690306      5.6269860252     11.0673780496
 H      6.6305483037      2.3861428767     10.0845696260
 H      5.5932540733      3.9999991842     11.6835139824
 H      6.4015783176      6.3154257225     11.7588468792
156
# ORCA Minimization Position Step 3, E_Pot=-422.89692261 Hartree, Unit is Angstrom
 C      3.2583140146      3.4060290153      6.8228060306
 C      2.6837970120      4.3067210193      5.9259640265
 C      3.1333190140      5.6269860252      5.8848720264
 H      2.9172720663      2.3655652541      6.8652297682
 H      1.8745500118      3.9932832097      5.2574631500
 H      2.6863997979      6.3309907143      5.1770977952
 C      4.1509860186      6.0480710271      6.7389940302
 C      4.7255030212      5.1473790231      7.6358360342
 C      4.2759810192      3.8271140171      7.6769280344
 H      4.4920279859      7.0885348677      6.6965703290
 H      5.5347499082      5.4608168174      8.3043368517
 H      4.7229002161      3.1231093836      8.3847021828
 C     -0.4463360020      1.3210210059      6.7389940302
 C     -1.0208530046      0.4203290019      7.6358360342
 C     -0.5713310026     -0.8999360040      7.6769280344
 H     -0.7828718683      2.3462763404      6.6971153818
 H     -1.8177550053      0.7318913065      8.2943127279
 H     -1.0123874518     -1.5957023592      8.3748804786
 C      0.4463360020     -1.3210210059      6.8228060306
 C      1.0208530046     -0.4203290019      5.9259640265
 C      0.5713310026      0.8999360040      5.8848720264
 H      0.7828703783     -2.3464201495      6.8641822868
 H      1.8177379188     -0.7306034464      5.2668750914
 H      1.0125754527      1.5942482171      5.1868861227
 C     -0.4463360020     10.7751210483      6.7389940302
 C     -1.0208530046      9.8744290442      7.6358360342
 C     -0.5713310026      8.5541640383      7.6769280344
 H     -0.7837973828     11.8001488298      6.6969814947
 H     -1.8171461284     10.1860972648      8.2949420066
 H     -1.0118861302      7.8573204854      8.3743979998
 C      0.4463360020      8.1330790364      6.8228060306
 C      1.0208530046      9.0337710405      5.9259640265
 C      0.5713310026     10.3540360464      5.8848720264
 H      0.7830497450      7.1074567599      6.8652392978
 H      1.8183931135      8.7246290228      5.2675545051
 H      1.0132143763     11.0484966556      5.1871522216
 C      6.9629640312      1.3210210059      6.7389940302
 C      6.3884470286      0.4203290019      7.6358360342
 C      6.8379690306     -0.8999360040      7.6769280344
 H      6.6262503276      2.3466432474      6.6965607779
 H      5.5909069332      0.7294710227      8.2942455082
 H      6.3960856756     -1.5943966252      8.3746478092
 C      7.8556360352     -1.3210210059      6.8228060306
 C      8.4301530378     -0.4203290019      5.9259640265
 C      7.9806310357      0.8999360040      5.8848720264
 H      8.1930974121     -2.3460487952      6.8648185585
 H      9.2264461720     -0.7319972179      5.2668580581
 H      8.4211861738      1.5967795484      5.1874020560
 C      6.9629640312     10.7751210483      6.7389940302
 C      6.3884470286      9.8744290442      7.6358360342
 C      6.8379690306      8.5541640383      7.6769280344
 H      6.6264296602     11.8005201953      6.6976177791
 H      5.5915621229     10.1847034862      8.2949249679
 H      6.3967246163      7.8598518170      8.3749139634
 C      7.8556360352      8.1330790364      6.8228060306
 C      8.4301530378      9.0337710405      5.9259640265
 C      7.9806310357     10.3540360464      5.8848720264
 H      8.1921719030      7.1078237271      6.8646846483
 H      9.2270550450      8.7222087532      5.2674873520
 H      8.4216874876     11.0498024036      5.1869195825
 C      4.1509860186     -1.3210210059      3.3485440150
 C      4.7255030212     -0.4203290019      4.2453860190
 C      4.2759810192      0.8999360040      4.2864780192
 H      4.4883174178     -2.3459544646      3.3063773055
 H      5.5217574262     -0.7307740249      4.9050011417
 H      4.7165948351      1.5942007070      4.9848788376
 C      3.2583140146      1.3210210059      3.4323560154
 C      2.6837970120      0.4203290019      2.5355140114
 C      3.1333190140     -0.8999360040      2.4944220112
 H      2.9227621750      2.3468955136      3.4746027203
 H      1.8870107396      0.7307677096      1.8764356510
 H      2.6919848203     -1.5959008513      1.7967335492
 C      4.1509860186     -1.3210210059     10.1294440454
 C      4.7255030212     -0.4203290019     11.0262860494
 C      4.2759810192      0.8999360040     11.0673780496
 H      4.4876709602     -2.3465029360     10.0881974807
 H      5.5222913987     -0.7318273232     11.6852791466
 H      4.7168427763      1.5949867414     11.7658438934
 C      3.2583140146      1.3210210059     10.2132560457
 C      2.6837970120      0.4203290019      9.3164140417
 C      3.1333190140     -0.8999360040      9.2753220415
 H      2.9200076874      2.3462959394     10.2554486482
 H      1.8870359094      0.7298713185      8.6576125073
 H      2.6918737728     -1.5940408809      8.5771209014
 C      4.1509860186      8.1330790364      3.3485440150
 C      4.7255030212      9.0337710405      4.2453860190
 C      4.2759810192     10.3540360464      4.2864780192
 H      4.4892923492      7.1078040985      3.3063514224
 H      5.5222641064      8.7242287057      4.9041875426
 H      4.7174262567     11.0481409265      4.9846791485
 C      3.2583140146     10.7751210483      3.4323560154
 C      2.6837970120      9.8744290442      2.5355140114
 C      3.1333190140      8.5541640383      2.4944220112
 H      2.9216290765     11.8006029776      3.4736025783
 H      1.8870086349     10.1859273618      1.8765209103
 H      2.6924572453      7.8591132895      1.7959561706
 C      4.1509860186      8.1330790364     10.1294440454
 C      4.7255030212      9.0337710405     11.0262860494
 C      4.2759810192     10.3540360464     11.0673780496
 H      4.4865378466      7.1072045405     10.0871973453
 H      5.5222892940      8.7233323293     11.6853644118
 H      4.7173152033     11.0500008983     11.7650665005
 C      3.2583140146     10.7751210483     10.2132560457
 C      2.6837970120      9.8744290442      9.3164140417
 C      3.1333190140      8.5541640383      9.2753220415
 H      2.9209826133     11.8000545021     10.2554227626
 H      1.8875425557     10.1848740497      8.6567988764
 H      2.6927051548      7.8598993169      8.5769212117
 C      0.4463360020      6.0480710271      3.4323560154
 C      1.0208530046      5.1473790231      2.5355140114
 C      0.5713310026      3.8271140171      2.4944220112
 H      0.7821237279      7.0736528426      3.4747442842
 H      1.8179780878      5.4577712004      1.8765792998
 H      1.0122608215      3.1319187020      1.7960383767
 C     -0.4463360020      3.4060290153      3.3485440150
 C     -1.0208530046      4.3067210193      4.2453860190
 C     -0.5713310026      5.6269860252      4.2864780192
 H     -0.7838836971      2.3807942889      3.3066799978
 H     -1.8176017040      3.9951234130      4.9038690261
 H     -1.0117535694      6.3236815864      4.9839807930
 C      0.4463360020      6.0480710271     10.2132560457
 C      1.0208530046      5.1473790231      9.3164140417
 C      0.5713310026      3.8271140171      9.2753220415
 H      0.7849470073      7.0730701491     10.2557325501
 H      1.8181934778      5.4568243662      8.6574408731
 H      1.0124077113      3.1329047573      8.5768412214
 C     -0.4463360020      3.4060290153     10.1294440454
 C     -1.0208530046      4.3067210193     11.0262860494
 C     -0.5713310026      5.6269860252     11.0673780496
 H     -0.7822460821      2.3809383974     10.0871491620
 H     -1.8172691388      3.9950637538     11.6853628522
 H     -1.0123950501      6.3230626006     11.7650605579
 C      7.8556360352      6.0480710271      3.4323560154
 C      8.4301530378      5.1473790231      2.5355140114
 C      7.9806310357      3.8271140171      2.4944220112
 H      8.1915461182      7.0731616431      3.4746508910
 H      9.2265691680      5.4590362948      1.8764372127
 H      8.4216950806      3.1310374403      1.7967395027
 C      6.9629640312      3.4060290153      3.3485440150
 C      6.3884470286      4.3067210193      4.2453860190
 C      6.8379690306      5.6269860252      4.2864780192
 H      6.6243530362      2.3810298964      3.3060675039
 H      5.5911065554      3.9972757097      4.9043591557
 H      6.3968923152      6.3211952893      4.9849588487
 C      7.8556360352      6.0480710271     10.2132560457
 C      8.4301530378      5.1473790231      9.3164140417
 C      7.9806310357      3.8271140171      9.2753220415
 H      8.1931837296      7.0733057545     10.2551200708
 H      9.2269017593      5.4589765993      8.6579310711
 H      8.4210536006      3.1304184571      8.5778192553
 C      6.9629640312      3.4060290153     10.1294440454
 C      6.3884470286      4.3067210193     11.0262860494
 C      6.8379690306      5.6269860252     11.0673780496
 H      6.6271763445      2.3804472168     10.0870557833
 H      5.5913219530      3.9963288591     11.6852207720
 H      6.3970392105      6.3221813464     11.7657616813
156
# ORCA Minimization Position Step 4, E_Pot=-422.89708463 Hartree, Unit is Angstrom
 C      3.2583140146      3.4060290153      6.8228060306
 C      2.6837970120      4.3067210193      5.9259640265
 C      3.1333190140      5.6269860252      5.8848720264
 H      2.9160539856      2.3643285397      6.8636730540
 H      1.8738903943      3.9924425278      5.2570784885
 H      2.6853521777      6.3321403661      5.1755915791
 C      4.1509860186      6.0480710271      6.7389940302
 C      4.7255030212      5.1473790231      7.6358360342
 C      4.2759810192      3.8271140171      7.6769280344
 H      4.4932460121      7.0897715029      6.6981270409
 H      5.5354095833      5.4616575462      8.3047215726
 H      4.7239478488      3.1219596672      8.3862084445
 C     -0.4463360020      1.3210210059      6.7389940302
 C     -1.0208530046      0.4203290019      7.6358360342
 C     -0.5713310026     -0.8999360040      7.6769280344
 H     -0.7839136035      2.3461758503      6.6986803663
 H     -1.8173698009      0.7337298198      8.2939854181
 H     -1.0127171034     -1.5961949472      8.3749209739
 C      0.4463360020     -1.3210210059      6.8228060306
 C      1.0208530046     -0.4203290019      5.9259640265
 C      0.5713310026      0.8999360040      5.8848720264
 H      0.7838679600     -2.3463102475      6.8623542789
 H      1.8173238445     -0.7318554668      5.2669190963
 H      1.0131275369      1.5942259174      5.1865856529
 C     -0.4463360020     10.7751210483      6.7389940302
 C     -1.0208530046      9.8744290442      7.6358360342
 C     -0.5713310026      8.5541640383      7.6769280344
 H     -0.7852770319     11.7998913237      6.6984371196
 H     -1.8164432444     10.1880245665      8.2949504981
 H     -1.0119548265      7.8563852116      8.3741598128
 C      0.4463360020      8.1330790364      6.8228060306
 C      1.0208530046      9.0337710405      5.9259640265
 C      0.5713310026     10.3540360464      5.8848720264
 H      0.7841417766      7.1076250080      6.8639089653
 H      1.8184122817      8.7239405853      5.2679319320
 H      1.0140528330     11.0485011069      5.1870933016
 C      6.9629640312      1.3210210059      6.7389940302
 C      6.3884470286      0.4203290019      7.6358360342
 C      6.8379690306     -0.8999360040      7.6769280344
 H      6.6251583096      2.3464750015      6.6978911172
 H      5.5908877592      0.7301594651      8.2938680672
 H      6.3952472245     -1.5944010873      8.3747067186
 C      7.8556360352     -1.3210210059      6.8228060306
 C      8.4301530378     -0.4203290019      5.9259640265
 C      7.9806310357      0.8999360040      5.8848720264
 H      8.1945770579     -2.3457912902      6.8633629295
 H      9.2257432922     -0.7339245169      5.2668495699
 H      8.4212548751      1.5977148179      5.1876402412
 C      6.9629640312     10.7751210483      6.7389940302
 C      6.3884470286      9.8744290442      7.6358360342
 C      6.8379690306      8.5541640383      7.6769280344
 H      6.6254320816     11.8004102946      6.6994457898