
                                 *****************
                                 * O   R   C   A *
                                 *****************

                                            #,                                       
                                            ###                                      
                                            ####                                     
                                            #####                                    
                                            ######                                   
                                           ########,                                 
                                     ,,################,,,,,                         
                               ,,#################################,,                 
                          ,,##########################################,,             
                       ,#########################################, ''#####,          
                    ,#############################################,,   '####,        
                  ,##################################################,,,,####,       
                ,###########''''           ''''###############################       
              ,#####''   ,,,,##########,,,,          '''####'''          '####       
            ,##' ,,,,###########################,,,                        '##       
           ' ,,###''''                  '''############,,,                           
         ,,##''                                '''############,,,,        ,,,,,,###''
      ,#''                                            '''#######################'''  
     '                                                          ''''####''''         
             ,#######,   #######,   ,#######,      ##                                
            ,#'     '#,  ##    ##  ,#'     '#,    #''#        ######   ,####,        
            ##       ##  ##   ,#'  ##            #'  '#       #        #'  '#        
            ##       ##  #######   ##           ,######,      #####,   #    #        
            '#,     ,#'  ##    ##  '#,     ,#' ,#      #,         ##   #,  ,#        
             '#######'   ##     ##  '#######'  #'      '#     #####' # '####'        



                  #######################################################
                  #                        -***-                        #
                  #          Department of theory and spectroscopy      #
                  #    Directorship and core code : Frank Neese         #
                  #        Max Planck Institute fuer Kohlenforschung    #
                  #                Kaiser Wilhelm Platz 1               #
                  #                 D-45470 Muelheim/Ruhr               #
                  #                      Germany                        #
                  #                                                     #
                  #                  All rights reserved                #
                  #                        -***-                        #
                  #######################################################


                         Program Version 5.0.2 -  RELEASE  -


 With contributions from (in alphabetic order):
   Daniel Aravena         : Magnetic Suceptibility
   Michael Atanasov       : Ab Initio Ligand Field Theory (pilot matlab implementation)
   Alexander A. Auer      : GIAO ZORA, VPT2 properties, NMR spectrum
   Ute Becker             : Parallelization
   Giovanni Bistoni       : ED, misc. LED, open-shell LED, HFLD
   Martin Brehm           : Molecular dynamics
   Dmytro Bykov           : SCF Hessian
   Vijay G. Chilkuri      : MRCI spin determinant printing, contributions to CSF-ICE
   Dipayan Datta          : RHF DLPNO-CCSD density
   Achintya Kumar Dutta   : EOM-CC, STEOM-CC
   Dmitry Ganyushin       : Spin-Orbit,Spin-Spin,Magnetic field MRCI
   Miquel Garcia          : C-PCM and meta-GGA Hessian, CC/C-PCM, Gaussian charge scheme
   Yang Guo               : DLPNO-NEVPT2, F12-NEVPT2, CIM, IAO-localization
   Andreas Hansen         : Spin unrestricted coupled pair/coupled cluster methods
   Benjamin Helmich-Paris : MC-RPA, TRAH-SCF, COSX integrals
   Lee Huntington         : MR-EOM, pCC
   Robert Izsak           : Overlap fitted RIJCOSX, COSX-SCS-MP3, EOM
   Marcus Kettner         : VPT2
   Christian Kollmar      : KDIIS, OOCD, Brueckner-CCSD(T), CCSD density, CASPT2, CASPT2-K
   Simone Kossmann        : Meta GGA functionals, TD-DFT gradient, OOMP2, MP2 Hessian
   Martin Krupicka        : Initial AUTO-CI
   Lucas Lang             : DCDCAS
   Marvin Lechner         : AUTO-CI (C++ implementation), FIC-MRCC
   Dagmar Lenk            : GEPOL surface, SMD
   Dimitrios Liakos       : Extrapolation schemes; Compound Job, initial MDCI parallelization
   Dimitrios Manganas     : Further ROCIS development; embedding schemes
   Dimitrios Pantazis     : SARC Basis sets
   Anastasios Papadopoulos: AUTO-CI, single reference methods and gradients
   Taras Petrenko         : DFT Hessian,TD-DFT gradient, ASA, ECA, R-Raman, ABS, FL, XAS/XES, NRVS
   Peter Pinski           : DLPNO-MP2, DLPNO-MP2 Gradient
   Christoph Reimann      : Effective Core Potentials
   Marius Retegan         : Local ZFS, SOC
   Christoph Riplinger    : Optimizer, TS searches, QM/MM, DLPNO-CCSD(T), (RO)-DLPNO pert. Triples
   Tobias Risthaus        : Range-separated hybrids, TD-DFT gradient, RPA, STAB
   Michael Roemelt        : Original ROCIS implementation
   Masaaki Saitow         : Open-shell DLPNO-CCSD energy and density
   Barbara Sandhoefer     : DKH picture change effects
   Avijit Sen             : IP-ROCIS
   Kantharuban Sivalingam : CASSCF convergence, NEVPT2, FIC-MRCI
   Bernardo de Souza      : ESD, SOC TD-DFT
   Georgi Stoychev        : AutoAux, RI-MP2 NMR, DLPNO-MP2 response
   Willem Van den Heuvel  : Paramagnetic NMR
   Boris Wezisla          : Elementary symmetry handling
   Frank Wennmohs         : Technical directorship


 We gratefully acknowledge several colleagues who have allowed us to
 interface, adapt or use parts of their codes:
   Stefan Grimme, W. Hujo, H. Kruse, P. Pracht,  : VdW corrections, initial TS optimization,
                  C. Bannwarth, S. Ehlert          DFT functionals, gCP, sTDA/sTD-DF
   Ed Valeev, F. Pavosevic, A. Kumar             : LibInt (2-el integral package), F12 methods
   Garnet Chan, S. Sharma, J. Yang, R. Olivares  : DMRG
   Ulf Ekstrom                                   : XCFun DFT Library
   Mihaly Kallay                                 : mrcc  (arbitrary order and MRCC methods)
   Jiri Pittner, Ondrej Demel                    : Mk-CCSD
   Frank Weinhold                                : gennbo (NPA and NBO analysis)
   Christopher J. Cramer and Donald G. Truhlar   : smd solvation model
   Lars Goerigk                                  : TD-DFT with DH, B97 family of functionals
   V. Asgeirsson, H. Jonsson                     : NEB implementation
   FAccTs GmbH                                   : IRC, NEB, NEB-TS, DLPNO-Multilevel, CI-OPT
                                                   MM, QMMM, 2- and 3-layer-ONIOM, Crystal-QMMM,
                                                   LR-CPCM, SF, NACMEs, symmetry and pop. for TD-DFT,
                                                   nearIR, NL-DFT gradient (VV10), updates on ESD,
                                                   ML-optimized integration grids
   S Lehtola, MJT Oliveira, MAL Marques          : LibXC Library
   Liviu Ungur et al                             : ANISO software


 Your calculation uses the libint2 library for the computation of 2-el integrals
 For citations please refer to: http://libint.valeyev.net

 Your ORCA version has been built with support for libXC version: 5.1.0
 For citations please refer to: https://tddft.org/programs/libxc/

 This ORCA versions uses:
   CBLAS   interface :  Fast vector & matrix operations
   LAPACKE interface :  Fast linear algebra routines
   SCALAPACK package :  Parallel linear algebra routines
   Shared memory     :  Shared parallel matrices
   BLAS/LAPACK       :  OpenBLAS 0.3.15  USE64BITINT DYNAMIC_ARCH NO_AFFINITY SkylakeX SINGLE_THREADED
        Core in use  :  SkylakeX
   Copyright (c) 2011-2014, The OpenBLAS Project




***************************************
The coordinates will be read from file: C6H6--12C6H12_0_1_bp86_xtb_6-31gpol_RC-1-layer.optH.xyz
***************************************


Preparing ONIOM calculation             ...         done
================================================================================

----- Orbital basis set information -----
Your calculation utilizes the basis: 6-31G*
   H-He, Li-Ne : W. J. Hehre, R. Ditchfield and J.A. Pople, J. Chem. Phys. 56, 2257 (1972).
                 Note: He and Ne are unpublished basis sets taken from the Gaussian program.
                 Note: Li and B from J. D. Dill and J. A. Pople, J. Chem. Phys. 62, 2921 (1975).
   Na - Ar     : M. M. Francl, W. J. Pietro, W. J. Hehre, J. S. Binkley, M. S. Gordon, 
                 D. J. DeFrees and J. A. Pople, J. Chem. Phys. 77, 3654 (1982).
   K - Zn      : V. A. Rassolov, J. A. Pople, M. A. Ratner, and T. L. Windus, J. Chem. Phys. 109, 1223 (1998).

----- AuxJ basis set information -----
Your calculation utilizes the AutoAux generation procedure.
  G. L. Stoychev, A. A. Auer, F. Neese, J. Chem. Theory Comput. 13, 554 (2017)

----- AuxC basis set information -----
Your calculation utilizes the AutoAux generation procedure.
  G. L. Stoychev, A. A. Auer, F. Neese, J. Chem. Theory Comput. 13, 554 (2017)

----- AuxJK basis set information -----
Your calculation utilizes the AutoAux generation procedure.
  G. L. Stoychev, A. A. Auer, F. Neese, J. Chem. Theory Comput. 13, 554 (2017)

================================================================================
                                        WARNINGS
                       Please study these warnings very carefully!
================================================================================


WARNING: Post HF methods need fully converged wavefunctions
  ===> : Setting SCFConvForced true
         You can overwrite this default with %scf ConvForced false 


WARNING: MDCI localization with Augmented Hessian Foster-Boys
  ===> : Switching off randomization!

INFO   : the flag for use of the SHARK integral package has been found!

================================================================================
                                       INPUT FILE
================================================================================
NAME = C6H6--12C6H12_0_1_eom-ccsd_xtb_6-31gpol_RC-1-layer.eom.inp
|  1> !qm/xtb rhf eom-ccsd 6-31g* tightscf 
|  2> !rijcosx autoaux
|  3> !normalprint
|  4> !pal8
|  5> 
|  6> %scf
|  7>   maxiter 500
|  8> end
|  9> 
| 10> %qmmm
| 11>   qmatoms { 0:11 } end
| 12> end
| 13> 
| 14> %mdci
| 15>   nroots 20
| 16> end
| 17> 
| 18> %maxcore 10000
| 19> 
| 20> *xyzfile 0 1 C6H6--12C6H12_0_1_bp86_xtb_6-31gpol_RC-1-layer.optH.xyz
| 21> 
| 22> %geom
| 23>   fragments
| 24>     1 { 0:11 } end
| 25>     2 { 12:155 } end
| 26>   end
| 27> end
| 28> 
| 29>                          ****END OF INPUT****
================================================================================

------------------------------------------------------------------------------

                             **************************
                             *    2-layered ONIOM     *
                             **************************


------------------------------------------------------------------------------




Multiscale model                       ... QM1/QM2
QM2 method                             ... XTB2
Coupling Scheme                        ... subtractive
Embedding Scheme                       ... electrostatic
PrintLevel                             ... 1
Method for determining QM2 charges     ... Hirshfeld
Charge of total system                 ... 0
Charge alteration scheme               ... Charge shifting
Scaling factor for CS scheme           ... 0.06
Gradient projection scheme             ... Lever rule
Scaling factor for QM2 charges         ... 1.00
AutoFF method                          ... XTB2
AutoFF boundary                        ... no covalent bonds
Point charges in QM calc. from MM atoms... 144
              from charge shift scheme ... 0
Printing trajectories, xyz and allxyz files:
        QMMMRegion                     ... YES
        activeRegion                   ... YES
        activeRegionExt                ... NO
        qmRegion                       ... YES
        qm2Region                      ... NO
Parameter files:
        ORCA Forcefield Filename       ... C6H6--12C6H12_0_1_eom-ccsd_xtb_6-31gpol_RC-1-layer.eom_L_QM2.ORCAFF.prms.tmp
        QM-LA bond distances Filename  ... C6H6--12C6H12_0_1_eom-ccsd_xtb_6-31gpol_RC-1-layer.eom.H_DIST.prms.tmp
Forcefield type                        ... ORCA
Size of different subsystems (in atoms):
Size of QMMM System                    ... 156
Size of QM2 Subsystem                  ... 144
Size of QM1 Subsystem                  ... 12
Number of link atoms                   ... 0
Size of QM1 Subsystem plus link atoms  ... 12
Size of region for optimizer           ... 156
        optimized atoms = activeRegion ... 156
        fixed atoms (distance cutoff)  ... 0 ( 1.0)
Composition of different systems (atoms start counting at 0):
QM1 Subsystem                          ...   0   1   2   3   4   5   6   7   8   9 
                                            10  11 
Active atoms                           ... All atoms 

                       ****************************
                       * Single Point Calculation *
                       ****************************

                    ************************************                      
                    *       QM/   XTB2 SP Energy       *                      
                    ************************************                      


------------------------------------------------------------------------------
                          XTB2 - FULL SYSTEM                         
------------------------------------------------------------------------------
Running XTB calculation
---------------------------------   --------------------
FINAL SINGLE POINT ENERGY (L-QM2)     -206.525318012660
---------------------------------   --------------------
------------------------------------------------------------------------------
                                  XTB2 - SMALL SYSTEM                         
------------------------------------------------------------------------------
Running XTB calculation
---------------------------------   --------------------
FINAL SINGLE POINT ENERGY (S-QM2)      -15.878394613050
---------------------------------   --------------------
------------------------------------------------------------------------------
                                QM - SMALL SYSTEM                           
------------------------------------------------------------------------------
---------------------------------
CARTESIAN COORDINATES (ANGSTROEM)
---------------------------------
  C      3.258314    3.406029    6.822806
  C      2.683797    4.306721    5.925964
  C      3.133319    5.626986    5.884872
  H      2.913263    2.365816    6.855213
  H      1.874896    3.989900    5.258481
  H      2.684789    6.330552    5.175403
  C      4.150986    6.048071    6.738994
  C      4.725503    5.147379    7.635836
  C      4.275981    3.827114    7.676928
  H      4.496037    7.088285    6.706587
  H      5.534403    5.464199    8.303319
  H      4.724510    3.123549    8.386396

----------------------------
CARTESIAN COORDINATES (A.U.)
----------------------------
  NO LB      ZA    FRAG     MASS         X           Y           Z
   0 C     6.0000    1    12.011    6.157321    6.436462   12.893235
   1 C     6.0000    1    12.011    5.071641    8.138523   11.198449
   2 C     6.0000    1    12.011    5.921115   10.633463   11.120796
   3 H     1.0000    1     1.008    5.505270    4.470744   12.954476
   4 H     1.0000    1     1.008    3.543040    7.539819    9.937089
   5 H     1.0000    1     1.008    5.073516   11.963010    9.780095
   6 C     6.0000    1    12.011    7.844227   11.429198   12.734853
   7 C     6.0000    1    12.011    8.929907    9.727137   14.429639
   8 C     6.0000    1    12.011    8.080433    7.232197   14.507292
   9 H     1.0000    1     1.008    8.496279   13.394917   12.673613
  10 H     1.0000    1     1.008   10.458507   10.325840   15.690998
  11 H     1.0000    1     1.008    8.928030    5.902652   15.847991

----------------------------------------------
CARTESIAN COORDINATES OF FRAGMENTS (ANGSTROEM)
----------------------------------------------

 FRAGMENT 1 
  C     3.258314    3.406029    6.822806
  C     2.683797    4.306721    5.925964
  C     3.133319    5.626986    5.884872
  H     2.913263    2.365816    6.855213
  H     1.874896    3.989900    5.258481
  H     2.684789    6.330552    5.175403
  C     4.150986    6.048071    6.738994
  C     4.725503    5.147379    7.635836
  C     4.275981    3.827114    7.676928
  H     4.496037    7.088285    6.706587
  H     5.534403    5.464199    8.303319
  H     4.724510    3.123549    8.386396

--------------------------------
INTERNAL COORDINATES (ANGSTROEM)
--------------------------------
 C      0   0   0     0.000000000000     0.00000000     0.00000000
 C      1   0   0     1.394862521062     0.00000000     0.00000000
 C      2   1   0     1.395298630602   119.81736024     0.00000000
 H      1   2   3     1.096427667302   120.13226101   180.37299123
 H      2   1   3     1.095550082324   120.60474645   180.57949070
 H      3   2   1     1.095230560055   119.66875970   179.62025584
 C      3   2   1     1.393729926654   120.20349063   359.82928291
 C      7   3   2     1.394862520998   119.97892897     0.17099412
 C      1   2   3     1.393729926624   119.97892897     0.17032980
 H      7   3   2     1.096428242772   119.88851193   180.37316718
 H      8   7   3     1.095549263241   120.60475455   179.25018782
 H      9   1   2     1.095229058612   120.12741314   179.61901158

---------------------------
INTERNAL COORDINATES (A.U.)
---------------------------
 C      0   0   0     0.000000000000     0.00000000     0.00000000
 C      1   0   0     2.635908159279     0.00000000     0.00000000
 C      2   1   0     2.636732286872   119.81736024     0.00000000
 H      1   2   3     2.071948016856   120.13226101   180.37299123
 H      2   1   3     2.070289621588   120.60474645   180.57949070
 H      3   2   1     2.069685812004   119.66875970   179.62025584
 C      3   2   1     2.633767866027   120.20349063   359.82928291
 C      7   3   2     2.635908159157   119.97892897     0.17099412
 C      1   2   3     2.633767865970   119.97892897     0.17032980
 H      7   3   2     2.071949104335   119.88851193   180.37316718
 H      8   7   3     2.070288073745   120.60475455   179.25018782
 H      9   1   2     2.069682974689   120.12741314   179.61901158

---------------------
BASIS SET INFORMATION
---------------------
There are 2 groups of distinct atoms

 Group   1 Type C   : 10s4p1d contracted to 3s2p1d pattern {631/31/1}
 Group   2 Type H   : 4s contracted to 2s pattern {31}

Atom   0C    basis set group =>   1
Atom   1C    basis set group =>   1
Atom   2C    basis set group =>   1
Atom   3H    basis set group =>   2
Atom   4H    basis set group =>   2
Atom   5H    basis set group =>   2
Atom   6C    basis set group =>   1
Atom   7C    basis set group =>   1
Atom   8C    basis set group =>   1
Atom   9H    basis set group =>   2
Atom  10H    basis set group =>   2
Atom  11H    basis set group =>   2
---------------------------------
AUXILIARY/J BASIS SET INFORMATION
---------------------------------
There are 2 groups of distinct atoms

 Group   1 Type C   : 13s11p10d2f contracted to 13s11p10d2f pattern {1111111111111/11111111111/1111111111/11}
 Group   2 Type H   : 9s2p contracted to 9s2p pattern {111111111/11}

Atom   0C    basis set group =>   1
Atom   1C    basis set group =>   1
Atom   2C    basis set group =>   1
Atom   3H    basis set group =>   2
Atom   4H    basis set group =>   2
Atom   5H    basis set group =>   2
Atom   6C    basis set group =>   1
Atom   7C    basis set group =>   1
Atom   8C    basis set group =>   1
Atom   9H    basis set group =>   2
Atom  10H    basis set group =>   2
Atom  11H    basis set group =>   2
---------------------------------
AUXILIARY/C BASIS SET INFORMATION
---------------------------------
There are 2 groups of distinct atoms

 Group   1 Type C   : 13s11p10d2f contracted to 13s11p10d2f pattern {1111111111111/11111111111/1111111111/11}
 Group   2 Type H   : 9s2p contracted to 9s2p pattern {111111111/11}

Atom   0C    basis set group =>   1
Atom   1C    basis set group =>   1
Atom   2C    basis set group =>   1
Atom   3H    basis set group =>   2
Atom   4H    basis set group =>   2
Atom   5H    basis set group =>   2
Atom   6C    basis set group =>   1
Atom   7C    basis set group =>   1
Atom   8C    basis set group =>   1
Atom   9H    basis set group =>   2
Atom  10H    basis set group =>   2
Atom  11H    basis set group =>   2
----------------------------------
AUXILIARY/JK BASIS SET INFORMATION
----------------------------------
There are 2 groups of distinct atoms

 Group   1 Type C   : 13s11p10d2f contracted to 13s11p10d2f pattern {1111111111111/11111111111/1111111111/11}
 Group   2 Type H   : 9s2p contracted to 9s2p pattern {111111111/11}

Atom   0C    basis set group =>   1
Atom   1C    basis set group =>   1
Atom   2C    basis set group =>   1
Atom   3H    basis set group =>   2
Atom   4H    basis set group =>   2
Atom   5H    basis set group =>   2
Atom   6C    basis set group =>   1
Atom   7C    basis set group =>   1
Atom   8C    basis set group =>   1
Atom   9H    basis set group =>   2
Atom  10H    basis set group =>   2
Atom  11H    basis set group =>   2


           ************************************************************
           *        Program running with 8 parallel MPI-processes     *
           *              working on a common directory               *
           ************************************************************
------------------------------------------------------------------------------
                           ORCA GTO INTEGRAL CALCULATION
                           -- RI-GTO INTEGRALS CHOSEN --
------------------------------------------------------------------------------
------------------------------------------------------------------------------
                   ___                                                        
                  /   \      - P O W E R E D   B Y -                         
                 /     \                                                     
                 |  |  |   _    _      __       _____    __    __             
                 |  |  |  | |  | |    /  \     |  _  \  |  |  /  |          
                  \  \/   | |  | |   /    \    | | | |  |  | /  /          
                 / \  \   | |__| |  /  /\  \   | |_| |  |  |/  /          
                |  |  |   |  __  | /  /__\  \  |    /   |      \           
                |  |  |   | |  | | |   __   |  |    \   |  |\   \          
                \     /   | |  | | |  |  |  |  | |\  \  |  | \   \       
                 \___/    |_|  |_| |__|  |__|  |_| \__\ |__|  \__/        
                                                                              
                      - O R C A' S   B I G   F R I E N D -                    
                                      &                                       
                       - I N T E G R A L  F E E D E R -                       
                                                                              
 v1 FN, 2020, v2 2021                                                         
------------------------------------------------------------------------------


Reading SHARK input file C6H6--12C6H12_0_1_eom-ccsd_xtb_6-31gpol_RC-1-layer.eom.SHARKINP.tmp ... SHARK General Contraction Test:  Segmented basis detected
   -> Pre-screening matrix *NOT* found on disk - recalculating with NShells=48
   -> Leaving CheckPreScreeningMatrix
ok
----------------------
SHARK INTEGRAL PACKAGE
----------------------

Number of atoms                             ...     12
Number of basis functions                   ...     96
Number of shells                            ...     48
Maximum angular momentum                    ...      2
Integral batch strategy                     ... SHARK/LIBINT Hybrid
RI-J (if used) integral strategy            ... SPLIT-RIJ (Revised 2003 algorithm where possible)
Printlevel                                  ...      2
Contraction scheme used                     ... SEGMENTED contraction
Coulomb Range Separation                    ... NOT USED
Exchange Range Separation                   ... NOT USED
Finite Nucleus Model                        ... NOT USED
Auxiliary Coulomb fitting basis             ... AVAILABLE
   # of basis functions in Aux-J            ...    750
   # of shells in Aux-J                     ...    282
   Maximum angular momentum in Aux-J        ...      3
Auxiliary J/K fitting basis                 ... AVAILABLE
   # of basis functions in Aux-JK           ...    750
   # of shells in Aux-JK                    ...    282
   Maximum angular momentum in Aux-JK       ...      3
Auxiliary Correlation fitting basis         ... AVAILABLE
   # of basis functions in Aux-C            ...    750
   # of shells in Aux-C                     ...    282
   Maximum angular momentum in Aux-C        ...      3
Auxiliary 'external' fitting basis          ... NOT available
Integral threshold                          ...     2.500000e-11
Primitive cut-off                           ...     2.500000e-12
Primitive pair pre-selection threshold      ...     2.500000e-12

Calculating pre-screening integrals         ... done (  0.1 sec) Dimension = 48
Organizing shell pair data                  ... done (  0.2 sec)
Shell pair information
Total number of shell pairs                 ...      1176
Shell pairs after pre-screening             ...      1158
Total number of primitive shell pairs       ...      6699
Primitive shell pairs kept                  ...      4825
          la=0 lb=0:    447 shell pairs
          la=1 lb=0:    360 shell pairs
          la=1 lb=1:     78 shell pairs
          la=2 lb=0:    180 shell pairs
          la=2 lb=1:     72 shell pairs
          la=2 lb=2:     21 shell pairs

Reading point charge file                   ... ok (144 point charges)
Calculating one electron integrals          ... done (  0.1 sec)
Calculating RI/J V-Matrix + Cholesky decomp.... done (  1.1 sec)
Calculating RI/JK V-Matrix + Cholesky decomp... done (  0.8 sec)
Calculating RI/C V-Matrix + Cholesky decomp.... done (  1.2 sec)
Calculating Nuclear repulsion               ... (+Point charges) done (  0.0 sec) ENN=    203.248506167121 Eh

SHARK setup successfully completed in   4.3 seconds

Maximum memory used throughout the entire GTOINT-calculation: 10.3 MB
ENUC WAS=  0.000000000
ENUC IS =  0.000000000


           ************************************************************
           *        Program running with 8 parallel MPI-processes     *
           *              working on a common directory               *
           ************************************************************
-------------------------------------------------------------------------------
                                 ORCA SCF
-------------------------------------------------------------------------------

------------
SCF SETTINGS
------------
Hamiltonian:
 Ab initio Hamiltonian  Method          .... Hartree-Fock(GTOs)
 RI-approximation to the Coulomb term is turned on
   Number of AuxJ basis functions       .... 750
   RIJ-COSX (HFX calculated with COS-X)).... on


General Settings:
 Integral files         IntName         .... C6H6--12C6H12_0_1_eom-ccsd_xtb_6-31gpol_RC-1-layer.eom
 Hartree-Fock type      HFTyp           .... RHF
 Total Charge           Charge          ....    0
 Multiplicity           Mult            ....    1
 Number of Electrons    NEL             ....   42
 Basis Dimension        Dim             ....   96
 Nuclear Repulsion      ENuc            ....    203.2485061671 Eh

Convergence Acceleration:
 DIIS                   CNVDIIS         .... on
   Start iteration      DIISMaxIt       ....    12
   Startup error        DIISStart       ....  0.200000
   # of expansion vecs  DIISMaxEq       ....     5
   Bias factor          DIISBfac        ....   1.050
   Max. coefficient     DIISMaxC        ....  10.000
 Trust-Rad. Augm. Hess. CNVTRAH         .... auto
   Auto Start mean grad. ratio tolernc. ....  1.125000
   Auto Start start iteration           ....    20
   Auto Start num. interpolation iter.  ....    10
   Max. Number of Micro iterations      ....    16
   Max. Number of Macro iterations      .... Maxiter - #DIIS iter
   Number of Davidson start vectors     ....     2
   Converg. threshold I  (grad. norm)   ....   1.000e-05
   Converg. threshold II (energy diff.) ....   1.000e-08
   Grad. Scal. Fac. for Micro threshold ....   0.100
   Minimum threshold for Micro iter.    ....   0.010
   NR start threshold (gradient norm)   ....   0.001
   Initial trust radius                 ....   0.400
   Minimum AH scaling param. (alpha)    ....   1.000
   Maximum AH scaling param. (alpha)    .... 1000.000
   Orbital update algorithm             .... Taylor
   White noise on init. David. guess    .... on
   Maximum white noise                  ....   0.010
   Quad. conv. algorithm                .... NR
 SOSCF                  CNVSOSCF        .... on
   Start iteration      SOSCFMaxIt      ....   150
   Startup grad/error   SOSCFStart      ....  0.003300
 Level Shifting         CNVShift        .... on
   Level shift para.    LevelShift      ....    0.2500
   Turn off err/grad.   ShiftErr        ....    0.0010
 Zerner damping         CNVZerner       .... off
 Static damping         CNVDamp         .... on
   Fraction old density DampFac         ....    0.7000
   Max. Damping (<1)    DampMax         ....    0.9800
   Min. Damping (>=0)   DampMin         ....    0.0000
   Turn off err/grad.   DampErr         ....    0.1000
 Fernandez-Rico         CNVRico         .... off

SCF Procedure:
 Maximum # iterations   MaxIter         ....   500
 SCF integral mode      SCFMode         .... Direct
   Integral package                     .... SHARK and LIBINT hybrid scheme
 Reset frequency        DirectResetFreq ....    20
 Integral Threshold     Thresh          ....  2.500e-11 Eh
 Primitive CutOff       TCut            ....  2.500e-12 Eh

Convergence Tolerance:
 Convergence Check Mode ConvCheckMode   .... Total+1el-Energy
 Convergence forced     ConvForced      .... 1
 Energy Change          TolE            ....  1.000e-08 Eh
 1-El. energy change                    ....  1.000e-05 Eh
 Orbital Gradient       TolG            ....  1.000e-05
 Orbital Rotation angle TolX            ....  1.000e-05
 DIIS Error             TolErr          ....  5.000e-07


Diagonalization of the overlap matrix:
Smallest eigenvalue                        ... 5.312e-04
Time for diagonalization                   ...    0.002 sec
Threshold for overlap eigenvalues          ... 1.000e-08
Number of eigenvalues below threshold      ... 0
Time for construction of square roots      ...    0.062 sec
Total time needed                          ...    0.176 sec

SHARK General Contraction Test:  Segmented basis detected
   -> Pre-screening matrix found on disk - Trying to read with NShells=48
   -> Passing Pre-screening matrix on to SHARK ...ok
   -> Leaving CheckPreScreeningMatrix
----------------------
SHARK INTEGRAL PACKAGE
----------------------

Number of atoms                             ...     12
Number of basis functions                   ...     96
Number of shells                            ...     48
Maximum angular momentum                    ...      2
Integral batch strategy                     ... SHARK/LIBINT Hybrid
RI-J (if used) integral strategy            ... SPLIT-RIJ (Revised 2003 algorithm where possible)
Printlevel                                  ...      2
Contraction scheme used                     ... SEGMENTED contraction
Coulomb Range Separation                    ... NOT USED
Exchange Range Separation                   ... NOT USED
Finite Nucleus Model                        ... NOT USED
Auxiliary Coulomb fitting basis             ... AVAILABLE
   # of basis functions in Aux-J            ...    750
   # of shells in Aux-J                     ...    282
   Maximum angular momentum in Aux-J        ...      3
Auxiliary J/K fitting basis                 ... AVAILABLE
   # of basis functions in Aux-JK           ...    750
   # of shells in Aux-JK                    ...    282
   Maximum angular momentum in Aux-JK       ...      3
Auxiliary Correlation fitting basis         ... AVAILABLE
   # of basis functions in Aux-C            ...    750
   # of shells in Aux-C                     ...    282
   Maximum angular momentum in Aux-C        ...      3
Auxiliary 'external' fitting basis          ... NOT available
Integral threshold                          ...     2.500000e-11
Primitive cut-off                           ...     2.500000e-12
Primitive pair pre-selection threshold      ...     2.500000e-12

Time for model grid setup =    0.161 sec

------------------------------
INITIAL GUESS: MODEL POTENTIAL
------------------------------
Loading Hartree-Fock densities                     ... done
Calculating cut-offs                               ... done
Initializing the effective Hamiltonian             ... done
Setting up the integral package (SHARK)            ... done
Starting the Coulomb interaction                   ...     -> Generating integrals - 
    -> L=0 0 :     0.003 sec done=     42060 skipped=       408 prim-skipped=         0
    -> L=1 0 :     0.002 sec done=     34560 skipped=         0 prim-skipped=         0
    -> L=1 1 :     0.001 sec done=      7488 skipped=         0 prim-skipped=         0
    -> L=2 0 :     0.001 sec done=     17280 skipped=         0 prim-skipped=         0
    -> L=2 1 :     0.001 sec done=      6912 skipped=         0 prim-skipped=         0
    -> L=2 2 :     0.000 sec done=      2016 skipped=         0 prim-skipped=         0
done (   0.0 sec)
Reading the grid                                   ... done
Mapping shells                                     ... done
Starting the XC term evaluation                    ... done (   0.1 sec)
Transforming the Hamiltonian                       ... done (   0.0 sec)
Diagonalizing the Hamiltonian                      ... done (   0.0 sec)
Back transforming the eigenvectors                 ... done (   0.0 sec)
Now organizing SCF variables                       ... done
                      ------------------
                      INITIAL GUESS DONE (   0.3 sec)
                      ------------------
--------------------
COSX GRID GENERATION
--------------------

GRIDX 1
-------
General Integration Accuracy     IntAcc      ... 3.816
Radial Grid Type                 RadialGrid  ... OptM3 with GC (2021)
Angular Grid (max. ang.)         AngularGrid ... 1 (Lebedev-50)
Angular grid pruning method      GridPruning ... 4 (adaptive)
Weight generation scheme         WeightScheme... Becke
Basis function cutoff            BFCut       ... 1.0000e-11
Integration weight cutoff        WCut        ... 1.0000e-14
Angular grids for H and He will be reduced by one unit
Partially contracted basis set               ... on
Rotationally invariant grid construction     ... off

Total number of grid points                  ...     7136
Total number of batches                      ...      114
Average number of points per batch           ...       62
Average number of grid points per atom       ...      595
UseSFitting                                  ... on

GRIDX 2
-------
General Integration Accuracy     IntAcc      ... 4.020
Radial Grid Type                 RadialGrid  ... OptM3 with GC (2021)
Angular Grid (max. ang.)         AngularGrid ... 2 (Lebedev-110)
Angular grid pruning method      GridPruning ... 4 (adaptive)
Weight generation scheme         WeightScheme... Becke
Basis function cutoff            BFCut       ... 1.0000e-11
Integration weight cutoff        WCut        ... 1.0000e-14
Angular grids for H and He will be reduced by one unit
Partially contracted basis set               ... on
Rotationally invariant grid construction     ... off

Total number of grid points                  ...    15570
Total number of batches                      ...      248
Average number of points per batch           ...       62
Average number of grid points per atom       ...     1298
UseSFitting                                  ... on

GRIDX 3
-------
General Integration Accuracy     IntAcc      ... 4.338
Radial Grid Type                 RadialGrid  ... OptM3 with GC (2021)
Angular Grid (max. ang.)         AngularGrid ... 3 (Lebedev-194)
Angular grid pruning method      GridPruning ... 4 (adaptive)
Weight generation scheme         WeightScheme... Becke
Basis function cutoff            BFCut       ... 1.0000e-11
Integration weight cutoff        WCut        ... 1.0000e-14
Angular grids for H and He will be reduced by one unit
Partially contracted basis set               ... on
Rotationally invariant grid construction     ... off

Total number of grid points                  ...    34160
Total number of batches                      ...      540
Average number of points per batch           ...       63
Average number of grid points per atom       ...     2847
UseSFitting                                  ... on

Time for X-Grid setup             =    0.514 sec

--------------
SCF ITERATIONS
--------------
               ***  Starting incremental Fock matrix formation  ***
==>> SHARK/AuxDens: NDens=1 Thresh =     2.500000e-11 TCut=    2.500000e-12 Lmax=2 LmaxAux=3
    -> Making Hermite density - ok     0.003 sec
    -> Making Aux-basis density - (lmax=2)
    -> L=0 0:    0.006 sec done=    120978 ( 96.0%) skipped=      5076 
    -> L=1 0:    0.006 sec done=    101520 (100.0%) skipped=         0 
    -> L=1 1:    0.002 sec done=     21996 (100.0%) skipped=         0 
    -> L=2 0:    0.003 sec done=     49782 ( 98.1%) skipped=       978 
    -> L=2 1:    0.001 sec done=     20304 (100.0%) skipped=         0 
    -> L=2 2:    0.001 sec done=      5922 (100.0%) skipped=         0 
    -> Aux basis density formed in    0.0 sec
    -> Solving linear equations - ok (   0.0 sec)
        Auxbasis Hermite Density:
        P|s>                     ...  0.000
        P|p>                     ...  0.000
        P|d>                     ...  0.000
        P|f>                     ...  0.000
        Building the Coulomb matrix: 
        J|ss>                          ... done (  0.0 sec) ndone=   613820 nskipped1=    17622 nskipped2=    16876
        J|ps>                          ... done (  0.0 sec) ndone=   439488 nskipped1=        0 nskipped2=     8892
        J|pp>                          ... done (  0.0 sec) ndone=    80706 nskipped1=        0 nskipped2=     1356
        J|ds>                          ... done (  0.0 sec) ndone=   132088 nskipped1=       32 nskipped2=     3240
        J|dp>                          ... done (  0.0 sec) ndone=    40608 nskipped1=        0 nskipped2=        0
        J|dd>                          ... done (  0.0 sec) ndone=     5922 nskipped1=        0 nskipped2=        0
        Coulomb matrix built in   0.0 sec

        Total time for Split-RI-J                ...    0.148 sec
          (0) Prelude                            ...    0.000 sec
          (1) Hermite density                    ...    0.000 sec
          (2) Aux basis density                  ...    0.000 sec (inner=  0.0)
          (3) Linear equation solution           ...    0.000 sec
          (4) J-Matrix construction              ...    0.038 sec (inner=  0.0)
        ---------------------------------------------------------

                         ----------------------------
                         !        ITERATION     0   !
                         ----------------------------
   Total Energy        :    -230.469792124546 Eh
   Energy Change       :    -230.469792124546 Eh
   MAX-DP              :       0.039137860157
   RMS-DP              :       0.002809108239
   Actual Damping      :       0.7000
   Actual Level Shift  :       0.2500 Eh

==>> SHARK/AuxDens: NDens=1 Thresh =     2.500000e-11 TCut=    2.500000e-12 Lmax=2 LmaxAux=3
    -> Making Hermite density - ok     0.002 sec
    -> Making Aux-basis density - (lmax=2)
    -> L=0 0:    0.006 sec done=    120222 ( 95.4%) skipped=      5832 
    -> L=1 0:    0.006 sec done=    100848 ( 99.3%) skipped=       672 
    -> L=1 1:    0.002 sec done=     21996 (100.0%) skipped=         0 
    -> L=2 0:    0.002 sec done=     47542 ( 93.7%) skipped=      3218 
    -> L=2 1:    0.001 sec done=     20304 (100.0%) skipped=         0 
    -> L=2 2:    0.000 sec done=      5922 (100.0%) skipped=         0 
    -> Aux basis density formed in    0.3 sec
    -> Solving linear equations - ok (   0.0 sec)
        Auxbasis Hermite Density:
        P|s>                     ...  0.000
        P|p>                     ...  0.000
        P|d>                     ...  0.000
        P|f>                     ...  0.000
        Building the Coulomb matrix: 
        J|ss>                          ... done (  0.0 sec) ndone=   611480 nskipped1=    22912 nskipped2=    13926
        J|ps>                          ... done (  0.0 sec) ndone=   439208 nskipped1=      300 nskipped2=     8872
        J|pp>                          ... done (  0.0 sec) ndone=    80706 nskipped1=        0 nskipped2=     1356
        J|ds>                          ... done (  0.0 sec) ndone=   130754 nskipped1=     1570 nskipped2=     3036
        J|dp>                          ... done (  0.0 sec) ndone=    40608 nskipped1=        0 nskipped2=        0
        J|dd>                          ... done (  0.0 sec) ndone=     5922 nskipped1=        0 nskipped2=        0
        Coulomb matrix built in   0.3 sec

        Total time for Split-RI-J                ...    1.770 sec
          (0) Prelude                            ...    0.000 sec
          (1) Hermite density                    ...    0.000 sec
          (2) Aux basis density                  ...    0.000 sec (inner=  0.0)
          (3) Linear equation solution           ...    0.000 sec
          (4) J-Matrix construction              ...    0.260 sec (inner=  0.0)
        ---------------------------------------------------------

                         ----------------------------
                         !        ITERATION     1   !
                         ----------------------------
   Total Energy        :    -230.549611718011 Eh
   Energy Change       :      -0.079819593465 Eh
   MAX-DP              :       0.030357075119
   RMS-DP              :       0.002215313729
   Actual Damping      :       0.7000
   Actual Level Shift  :       0.2500 Eh

==>> SHARK/AuxDens: NDens=1 Thresh =     2.500000e-11 TCut=    2.500000e-12 Lmax=2 LmaxAux=3
    -> Making Hermite density - ok     0.003 sec
    -> Making Aux-basis density - (lmax=2)
    -> L=0 0:    0.006 sec done=    120222 ( 95.4%) skipped=      5832 
    -> L=1 0:    0.006 sec done=    100874 ( 99.4%) skipped=       646 
    -> L=1 1:    0.002 sec done=     21996 (100.0%) skipped=         0 
    -> L=2 0:    0.002 sec done=     45228 ( 89.1%) skipped=      5532 
    -> L=2 1:    0.001 sec done=     20304 (100.0%) skipped=         0 
    -> L=2 2:    0.000 sec done=      5922 (100.0%) skipped=         0 
    -> Aux basis density formed in    0.2 sec
    -> Solving linear equations - ok (   0.1 sec)
        Auxbasis Hermite Density:
        P|s>                     ...  0.000
        P|p>                     ...  0.000
        P|d>                     ...  0.000
        P|f>                     ...  0.000
        Building the Coulomb matrix: 
        J|ss>                          ... done (  0.0 sec) ndone=   611170 nskipped1=    23258 nskipped2=    13890
        J|ps>                          ... done (  0.0 sec) ndone=   439064 nskipped1=      456 nskipped2=     8860
        J|pp>                          ... done (  0.0 sec) ndone=    80706 nskipped1=        0 nskipped2=     1356
        J|ds>                          ... done (  0.0 sec) ndone=   130332 nskipped1=     2098 nskipped2=     2930
        J|dp>                          ... done (  0.0 sec) ndone=    40608 nskipped1=        0 nskipped2=        0
        J|dd>                          ... done (  0.0 sec) ndone=     5922 nskipped1=        0 nskipped2=        0
        Coulomb matrix built in   0.4 sec

        Total time for Split-RI-J                ...    1.756 sec
          (0) Prelude                            ...    0.000 sec
          (1) Hermite density                    ...    0.000 sec
          (2) Aux basis density                  ...    0.000 sec (inner=  0.0)
          (3) Linear equation solution           ...    0.000 sec
          (4) J-Matrix construction              ...    0.418 sec (inner=  0.0)
        ---------------------------------------------------------
                               ***Turning on DIIS***

                         ----------------------------
                         !        ITERATION     2   !
                         ----------------------------
   Total Energy        :    -230.599361130185 Eh
   Energy Change       :      -0.049749412174 Eh
   MAX-DP              :       0.065622081288
   RMS-DP              :       0.005000599089
   Actual Damping      :       0.0000
   Actual Level Shift  :       0.2500 Eh
   DIIS-Error          :       0.061594955021

==>> SHARK/AuxDens: NDens=1 Thresh =     2.500000e-11 TCut=    2.500000e-12 Lmax=2 LmaxAux=3
    -> Making Hermite density - ok     0.002 sec
    -> Making Aux-basis density - (lmax=2)
    -> L=0 0:    0.006 sec done=    120642 ( 95.7%) skipped=      5412 
    -> L=1 0:    0.006 sec done=    101412 ( 99.9%) skipped=       108 
    -> L=1 1:    0.002 sec done=     21996 (100.0%) skipped=         0 
    -> L=2 0:    0.003 sec done=     48020 ( 94.6%) skipped=      2740 
    -> L=2 1:    0.001 sec done=     20304 (100.0%) skipped=         0 
    -> L=2 2:    0.001 sec done=      5922 (100.0%) skipped=         0 
    -> Aux basis density formed in    0.2 sec
    -> Solving linear equations - ok (   0.0 sec)
        Auxbasis Hermite Density:
        P|s>                     ...  0.000
        P|p>                     ...  0.000
        P|d>                     ...  0.000
        P|f>                     ...  0.000
        Building the Coulomb matrix: 
        J|ss>                          ... done (  0.0 sec) ndone=   611634 nskipped1=    22910 nskipped2=    13774
        J|ps>                          ... done (  0.0 sec) ndone=   439224 nskipped1=      336 nskipped2=     8820
        J|pp>                          ... done (  0.0 sec) ndone=    80706 nskipped1=        0 nskipped2=     1356
        J|ds>                          ... done (  0.0 sec) ndone=   131090 nskipped1=     1236 nskipped2=     3034
        J|dp>                          ... done (  0.0 sec) ndone=    40608 nskipped1=        0 nskipped2=        0
        J|dd>                          ... done (  0.0 sec) ndone=     5922 nskipped1=        0 nskipped2=        0
        Coulomb matrix built in   0.2 sec

        Total time for Split-RI-J                ...    0.976 sec
          (0) Prelude                            ...    0.000 sec
          (1) Hermite density                    ...    0.000 sec
          (2) Aux basis density                  ...    0.000 sec (inner=  0.0)
          (3) Linear equation solution           ...    0.000 sec
          (4) J-Matrix construction              ...    0.246 sec (inner=  0.0)
        ---------------------------------------------------------

                         ----------------------------
                         !        ITERATION     3   !
                         ----------------------------
   Total Energy        :    -230.260787337120 Eh
   Energy Change       :       0.338573793064 Eh
   MAX-DP              :       0.011505646781
   RMS-DP              :       0.001046758395
   Actual Damping      :       0.0000
   Actual Level Shift  :       0.2500 Eh
   DIIS-Error          :       0.021395891689
   DIIS coefficients:
      0.22736   0.77264

==>> SHARK/AuxDens: NDens=1 Thresh =     2.500000e-11 TCut=    2.500000e-12 Lmax=2 LmaxAux=3
    -> Making Hermite density - ok     0.003 sec
    -> Making Aux-basis density - (lmax=2)
    -> L=0 0:    0.007 sec done=    119142 ( 94.5%) skipped=      6912 
    -> L=1 0:    0.006 sec done=    100952 ( 99.4%) skipped=       568 
    -> L=1 1:    0.002 sec done=     21996 (100.0%) skipped=         0 
    -> L=2 0:    0.002 sec done=     47400 ( 93.4%) skipped=      3360 
    -> L=2 1:    0.001 sec done=     20304 (100.0%) skipped=         0 
    -> L=2 2:    0.001 sec done=      5922 (100.0%) skipped=         0 
    -> Aux basis density formed in    0.2 sec
    -> Solving linear equations - ok (   0.0 sec)
        Auxbasis Hermite Density:
        P|s>                     ...  0.000
        P|p>                     ...  0.000
        P|d>                     ...  0.000
        P|f>                     ...  0.000
        Building the Coulomb matrix: 
        J|ss>                          ... done (  0.0 sec) ndone=   611760 nskipped1=    22614 nskipped2=    13944
        J|ps>                          ... done (  0.0 sec) ndone=   439266 nskipped1=      222 nskipped2=     8892
        J|pp>                          ... done (  0.0 sec) ndone=    80706 nskipped1=        0 nskipped2=     1356
        J|ds>                          ... done (  0.0 sec) ndone=   131002 nskipped1=     1316 nskipped2=     3042
        J|dp>                          ... done (  0.0 sec) ndone=    40608 nskipped1=        0 nskipped2=        0
        J|dd>                          ... done (  0.0 sec) ndone=     5922 nskipped1=        0 nskipped2=        0
        Coulomb matrix built in   0.3 sec

        Total time for Split-RI-J                ...    1.343 sec
          (0) Prelude                            ...    0.000 sec
          (1) Hermite density                    ...    0.000 sec
          (2) Aux basis density                  ...    0.000 sec (inner=  0.0)
          (3) Linear equation solution           ...    0.000 sec
          (4) J-Matrix construction              ...    0.337 sec (inner=  0.0)
        ---------------------------------------------------------

                         ----------------------------
                         !        ITERATION     4   !
                         ----------------------------
   Total Energy        :    -230.702138252959 Eh
   Energy Change       :      -0.441350915838 Eh
   MAX-DP              :       0.003003834448
   RMS-DP              :       0.000365501979
   Actual Damping      :       0.0000
   Actual Level Shift  :       0.2500 Eh
   DIIS-Error          :       0.002543312390
   DIIS coefficients:
     -0.02702  -0.08119   1.10821

==>> SHARK/AuxDens: NDens=1 Thresh =     2.500000e-11 TCut=    2.500000e-12 Lmax=2 LmaxAux=3
    -> Making Hermite density - ok     0.006 sec
    -> Making Aux-basis density - (lmax=2)
    -> L=0 0:    0.006 sec done=    118878 ( 94.3%) skipped=      7176 
    -> L=1 0:    0.006 sec done=    100504 ( 99.0%) skipped=      1016 
    -> L=1 1:    0.002 sec done=     21996 (100.0%) skipped=         0 
    -> L=2 0:    0.002 sec done=     46312 ( 91.2%) skipped=      4448 
    -> L=2 1:    0.001 sec done=     20304 (100.0%) skipped=         0 
    -> L=2 2:    0.001 sec done=      5922 (100.0%) skipped=         0 
    -> Aux basis density formed in    0.2 sec
    -> Solving linear equations - ok (   0.0 sec)
        Auxbasis Hermite Density:
        P|s>                     ...  0.000
        P|p>                     ...  0.000
        P|d>                     ...  0.000
        P|f>                     ...  0.000
        Building the Coulomb matrix: 
        J|ss>                          ... done (  0.0 sec) ndone=   607320 nskipped1=    27638 nskipped2=    13360
        J|ps>                          ... done (  0.0 sec) ndone=   437530 nskipped1=     2074 nskipped2=     8776
        J|pp>                          ... done (  0.0 sec) ndone=    80706 nskipped1=        0 nskipped2=     1356
        J|ds>                          ... done (  0.0 sec) ndone=   126724 nskipped1=     6776 nskipped2=     1860
        J|dp>                          ... done (  0.0 sec) ndone=    40608 nskipped1=        0 nskipped2=        0
        J|dd>                          ... done (  0.0 sec) ndone=     5922 nskipped1=        0 nskipped2=        0
        Coulomb matrix built in   0.3 sec

        Total time for Split-RI-J                ...    1.204 sec
          (0) Prelude                            ...    0.000 sec
          (1) Hermite density                    ...    0.000 sec
          (2) Aux basis density                  ...    0.000 sec (inner=  0.0)
          (3) Linear equation solution           ...    0.000 sec
          (4) J-Matrix construction              ...    0.263 sec (inner=  0.0)
        ---------------------------------------------------------
                      *** Initiating the SOSCF procedure ***
                           *** Shutting down DIIS ***
                      *** Re-Reading the Fockian *** 
                      *** Removing any level shift *** 

                         ----------------------------
                         !        ITERATION     5   !
                         ----------------------------
   Total Energy        :    -230.704203873718 Eh
   Energy Change       :      -0.002065620759 Eh
   MAX-DP              :       0.001619186073
   RMS-DP              :       0.000188740435
   Orbital gradient    :       0.001565688508
   Orbital Rotation    :       0.001565688508
   Actual Damping      :       0.0000

               *** Restarting incremental Fock matrix formation ***
==>> SHARK/AuxDens: NDens=1 Thresh =     2.500000e-11 TCut=    2.500000e-12 Lmax=2 LmaxAux=3
    -> Making Hermite density - ok     0.003 sec
    -> Making Aux-basis density - (lmax=2)
    -> L=0 0:    0.007 sec done=    120972 ( 96.0%) skipped=      5082 
    -> L=1 0:    0.006 sec done=    101520 (100.0%) skipped=         0 
    -> L=1 1:    0.002 sec done=     21996 (100.0%) skipped=         0 
    -> L=2 0:    0.003 sec done=     49350 ( 97.2%) skipped=      1410 
    -> L=2 1:    0.001 sec done=     20304 (100.0%) skipped=         0 
    -> L=2 2:    0.001 sec done=      5922 (100.0%) skipped=         0 
    -> Aux basis density formed in    0.2 sec
    -> Solving linear equations - ok (   0.0 sec)
        Auxbasis Hermite Density:
        P|s>                     ...  0.000
        P|p>                     ...  0.000
        P|d>                     ...  0.000
        P|f>                     ...  0.000
        Building the Coulomb matrix: 
        J|ss>                          ... done (  0.0 sec) ndone=   613784 nskipped1=    17842 nskipped2=    16692
        J|ps>                          ... done (  0.0 sec) ndone=   439488 nskipped1=        0 nskipped2=     8892
        J|pp>                          ... done (  0.0 sec) ndone=    80706 nskipped1=        0 nskipped2=     1356
        J|ds>                          ... done (  0.0 sec) ndone=   132090 nskipped1=       34 nskipped2=     3236
        J|dp>                          ... done (  0.0 sec) ndone=    40608 nskipped1=        0 nskipped2=        0
        J|dd>                          ... done (  0.0 sec) ndone=     5922 nskipped1=        0 nskipped2=        0
        Coulomb matrix built in   0.1 sec

        Total time for Split-RI-J                ...    1.076 sec
          (0) Prelude                            ...    0.000 sec
          (1) Hermite density                    ...    0.000 sec
          (2) Aux basis density                  ...    0.000 sec (inner=  0.0)
          (3) Linear equation solution           ...    0.000 sec
          (4) J-Matrix construction              ...    0.129 sec (inner=  0.0)
        ---------------------------------------------------------

                         ----------------------------
                         !        ITERATION     6   !
                         ----------------------------
   Total Energy        :    -230.701762744123 Eh
   Energy Change       :       0.002441129594 Eh
   MAX-DP              :       0.000680500670
   RMS-DP              :       0.000056761662
   Orbital gradient    :       0.000216147531
   Orbital Rotation    :       0.000170064877
   Actual Damping      :       0.0000

==>> SHARK/AuxDens: NDens=1 Thresh =     2.500000e-11 TCut=    2.500000e-12 Lmax=2 LmaxAux=3
    -> Making Hermite density - ok     0.002 sec
    -> Making Aux-basis density - (lmax=2)
    -> L=0 0:    0.006 sec done=    112069 ( 88.9%) skipped=     13985 
    -> L=1 0:    0.006 sec done=     99000 ( 97.5%) skipped=      2520 
    -> L=1 1:    0.002 sec done=     21996 (100.0%) skipped=         0 
    -> L=2 0:    0.002 sec done=     41599 ( 82.0%) skipped=      9161 
    -> L=2 1:    0.001 sec done=     20304 (100.0%) skipped=         0 
    -> L=2 2:    0.000 sec done=      5922 (100.0%) skipped=         0 
    -> Aux basis density formed in    0.2 sec
    -> Solving linear equations - ok (   0.0 sec)
        Auxbasis Hermite Density:
        P|s>                     ...  0.000
        P|p>                     ...  0.000
        P|d>                     ...  0.000
        P|f>                     ...  0.000
        Building the Coulomb matrix: 
        J|ss>                          ... done (  0.0 sec) ndone=   587740 nskipped1=    50322 nskipped2=    10256
        J|ps>                          ... done (  0.0 sec) ndone=   429062 nskipped1=    11064 nskipped2=     8254
        J|pp>                          ... done (  0.0 sec) ndone=    80706 nskipped1=        0 nskipped2=     1356
        J|ds>                          ... done (  0.0 sec) ndone=   118680 nskipped1=    16092 nskipped2=      588
        J|dp>                          ... done (  0.0 sec) ndone=    40608 nskipped1=        0 nskipped2=        0
        J|dd>                          ... done (  0.0 sec) ndone=     5922 nskipped1=        0 nskipped2=        0
        Coulomb matrix built in   0.2 sec

        Total time for Split-RI-J                ...    1.509 sec
          (0) Prelude                            ...    0.000 sec
          (1) Hermite density                    ...    0.000 sec
          (2) Aux basis density                  ...    0.000 sec (inner=  0.0)
          (3) Linear equation solution           ...    0.000 sec
          (4) J-Matrix construction              ...    0.205 sec (inner=  0.0)
        ---------------------------------------------------------

                         ----------------------------
                         !        ITERATION     7   !
                         ----------------------------
   Total Energy        :    -230.701763954126 Eh
   Energy Change       :      -0.000001210003 Eh
   MAX-DP              :       0.000203928256
   RMS-DP              :       0.000017383036
   Orbital gradient    :       0.000078494358
   Orbital Rotation    :       0.000086357798
   Actual Damping      :       0.0000

==>> SHARK/AuxDens: NDens=1 Thresh =     2.500000e-11 TCut=    2.500000e-12 Lmax=2 LmaxAux=3
    -> Making Hermite density - ok     0.002 sec
    -> Making Aux-basis density - (lmax=2)
    -> L=0 0:    0.006 sec done=    107406 ( 85.2%) skipped=     18648 
    -> L=1 0:    0.006 sec done=     97276 ( 95.8%) skipped=      4244 
    -> L=1 1:    0.002 sec done=     21996 (100.0%) skipped=         0 
    -> L=2 0:    0.002 sec done=     40772 ( 80.3%) skipped=      9988 
    -> L=2 1:    0.001 sec done=     20304 (100.0%) skipped=         0 
    -> L=2 2:    0.000 sec done=      5922 (100.0%) skipped=         0 
    -> Aux basis density formed in    0.2 sec
    -> Solving linear equations - ok (   0.0 sec)
        Auxbasis Hermite Density:
        P|s>                     ...  0.000
        P|p>                     ...  0.000
        P|d>                     ...  0.000
        P|f>                     ...  0.000
        Building the Coulomb matrix: 
        J|ss>                          ... done (  0.0 sec) ndone=   578248 nskipped1=    60710 nskipped2=     9360
        J|ps>                          ... done (  0.0 sec) ndone=   425042 nskipped1=    14982 nskipped2=     8356
        J|pp>                          ... done (  0.0 sec) ndone=    80694 nskipped1=       12 nskipped2=     1356
        J|ds>                          ... done (  0.0 sec) ndone=   115744 nskipped1=    19074 nskipped2=      542
        J|dp>                          ... done (  0.0 sec) ndone=    40590 nskipped1=       18 nskipped2=        0
        J|dd>                          ... done (  0.0 sec) ndone=     5919 nskipped1=        3 nskipped2=        0
        Coulomb matrix built in   0.3 sec

        Total time for Split-RI-J                ...    1.444 sec
          (0) Prelude                            ...    0.000 sec
          (1) Hermite density                    ...    0.000 sec
          (2) Aux basis density                  ...    0.000 sec (inner=  0.0)
          (3) Linear equation solution           ...    0.000 sec
          (4) J-Matrix construction              ...    0.318 sec (inner=  0.0)
        ---------------------------------------------------------

                         ----------------------------
                         !        ITERATION     8   !
                         ----------------------------
   Total Energy        :    -230.701764046323 Eh
   Energy Change       :      -0.000000092197 Eh
   MAX-DP              :       0.000019747559
   RMS-DP              :       0.000001367960
   Orbital gradient    :       0.000008371158
   Orbital Rotation    :       0.000008085826
   Actual Damping      :       0.0000

==>> SHARK/AuxDens: NDens=1 Thresh =     2.500000e-11 TCut=    2.500000e-12 Lmax=2 LmaxAux=3
    -> Making Hermite density - ok     0.002 sec
    -> Making Aux-basis density - (lmax=2)
    -> L=0 0:    0.006 sec done=    100792 ( 80.0%) skipped=     25262 
    -> L=1 0:    0.006 sec done=     92341 ( 91.0%) skipped=      9179 
    -> L=1 1:    0.002 sec done=     21996 (100.0%) skipped=         0 
    -> L=2 0:    0.002 sec done=     40176 ( 79.1%) skipped=     10584 
    -> L=2 1:    0.001 sec done=     20304 (100.0%) skipped=         0 
    -> L=2 2:    0.001 sec done=      5438 ( 91.8%) skipped=       484 
    -> Aux basis density formed in    0.3 sec
    -> Solving linear equations - ok (   0.0 sec)
        Auxbasis Hermite Density:
        P|s>                     ...  0.000
        P|p>                     ...  0.000
        P|d>                     ...  0.000
        P|f>                     ...  0.000
        Building the Coulomb matrix: 
        J|ss>                          ... done (  0.0 sec) ndone=   540343 nskipped1=   101669 nskipped2=     6306
        J|ps>                          ... done (  0.0 sec) ndone=   408112 nskipped1=    32444 nskipped2=     7824
        J|pp>                          ... done (  0.0 sec) ndone=    80667 nskipped1=       42 nskipped2=     1353
        J|ds>                          ... done (  0.0 sec) ndone=   103016 nskipped1=    32186 nskipped2=      158
        J|dp>                          ... done (  0.0 sec) ndone=    40548 nskipped1=       60 nskipped2=        0
        J|dd>                          ... done (  0.0 sec) ndone=     5907 nskipped1=       15 nskipped2=        0
        Coulomb matrix built in   0.3 sec

        Total time for Split-RI-J                ...    1.697 sec
          (0) Prelude                            ...    0.000 sec
          (1) Hermite density                    ...    0.000 sec
          (2) Aux basis density                  ...    0.000 sec (inner=  0.0)
          (3) Linear equation solution           ...    0.000 sec
          (4) J-Matrix construction              ...    0.255 sec (inner=  0.0)
        ---------------------------------------------------------

                         ----------------------------
                         !        ITERATION     9   !
                         ----------------------------
   Total Energy        :    -230.701764046778 Eh
   Energy Change       :      -0.000000000456 Eh
   MAX-DP              :       0.000006514191
   RMS-DP              :       0.000000513414
   Orbital gradient    :       0.000003026545
   Orbital Rotation    :       0.000003392206
   Actual Damping      :       0.0000

==>> SHARK/AuxDens: NDens=1 Thresh =     2.500000e-11 TCut=    2.500000e-12 Lmax=2 LmaxAux=3
    -> Making Hermite density - ok     0.002 sec
    -> Making Aux-basis density - (lmax=2)
    -> L=0 0:    0.005 sec done=     94696 ( 75.1%) skipped=     31358 
    -> L=1 0:    0.006 sec done=     91526 ( 90.2%) skipped=      9994 
    -> L=1 1:    0.002 sec done=     21996 (100.0%) skipped=         0 
    -> L=2 0:    0.002 sec done=     39299 ( 77.4%) skipped=     11461 
    -> L=2 1:    0.001 sec done=     20280 ( 99.9%) skipped=        24 
    -> L=2 2:    0.001 sec done=      5276 ( 89.1%) skipped=       646 
    -> Aux basis density formed in    0.3 sec
    -> Solving linear equations - ok (   0.0 sec)
        Auxbasis Hermite Density:
        P|s>                     ...  0.000
        P|p>                     ...  0.000
        P|d>                     ...  0.000
        P|f>                     ...  0.000
        Building the Coulomb matrix: 
        J|ss>                          ... done (  0.0 sec) ndone=   538454 nskipped1=   102770 nskipped2=     7094
        J|ps>                          ... done (  0.0 sec) ndone=   407900 nskipped1=    32464 nskipped2=     8016
        J|pp>                          ... done (  0.0 sec) ndone=    80676 nskipped1=       30 nskipped2=     1356
        J|ds>                          ... done (  0.0 sec) ndone=   103822 nskipped1=    31288 nskipped2=      250
        J|dp>                          ... done (  0.0 sec) ndone=    40548 nskipped1=       60 nskipped2=        0
        J|dd>                          ... done (  0.0 sec) ndone=     5901 nskipped1=       21 nskipped2=        0
        Coulomb matrix built in   0.2 sec

        Total time for Split-RI-J                ...    1.345 sec
          (0) Prelude                            ...    0.000 sec
          (1) Hermite density                    ...    0.000 sec
          (2) Aux basis density                  ...    0.000 sec (inner=  0.0)
          (3) Linear equation solution           ...    0.000 sec
          (4) J-Matrix construction              ...    0.211 sec (inner=  0.0)
        ---------------------------------------------------------
                  ***Gradient check signals convergence***
              ***Rediagonalizing the Fockian in SOSCF/NRSCF***

               *****************************************************
               *                     SUCCESS                       *
               *           SCF CONVERGED AFTER  10 CYCLES          *
               *****************************************************

Old exchange energy                            =    -33.237439900 Eh
New exchange energy                            =    -33.237548419 Eh
Exchange energy change after final integration =     -0.000108519 Eh
Total energy after final integration           =   -230.701872565 Eh
Final COS-X integration done in                =     1.396 sec

----------------
TOTAL SCF ENERGY
----------------

Total Energy       :         -230.70187256 Eh           -6277.71711 eV

Components:
Nuclear Repulsion  :          203.24850617 Eh            5530.67303 eV
Electronic Energy  :         -433.95037873 Eh          -11808.39013 eV
One Electron Energy:         -713.04176077 Eh          -19402.85273 eV
Two Electron Energy:          279.09138204 Eh            7594.46260 eV
Max COSX asymmetry :            0.00000338 Eh               0.00009 eV

Virial components:
Potential Energy   :         -461.15788323 Eh          -12548.74397 eV
Kinetic Energy     :          230.45601066 Eh            6271.02686 eV
Virial Ratio       :            2.00106685


---------------
SCF CONVERGENCE
---------------

  Last Energy change         ...    1.2516e-09  Tolerance :   1.0000e-08
  Last MAX-Density change    ...    3.1086e-15  Tolerance :   1.0000e-07
  Last RMS-Density change    ...    6.6065e-17  Tolerance :   5.0000e-09
  Last Orbital Gradient      ...    6.9989e-07  Tolerance :   1.0000e-05
  Last Orbital Rotation      ...    1.2556e-06  Tolerance :   1.0000e-05

             **** THE GBW FILE WAS UPDATED (C6H6--12C6H12_0_1_eom-ccsd_xtb_6-31gpol_RC-1-layer.eom.gbw) ****
             **** DENSITY C6H6--12C6H12_0_1_eom-ccsd_xtb_6-31gpol_RC-1-layer.eom.scfp WAS UPDATED ****
             **** ENERGY FILE WAS UPDATED (C6H6--12C6H12_0_1_eom-ccsd_xtb_6-31gpol_RC-1-layer.eom.en.tmp) ****
             **** THE GBW FILE WAS UPDATED (C6H6--12C6H12_0_1_eom-ccsd_xtb_6-31gpol_RC-1-layer.eom.gbw) ****
             **** DENSITY C6H6--12C6H12_0_1_eom-ccsd_xtb_6-31gpol_RC-1-layer.eom.scfp WAS UPDATED ****
----------------
ORBITAL ENERGIES
----------------

  NO   OCC          E(Eh)            E(eV) 
   0   2.0000     -11.233789      -305.6870 
   1   2.0000     -11.233344      -305.6748 
   2   2.0000     -11.233134      -305.6691 
   3   2.0000     -11.232158      -305.6426 
   4   2.0000     -11.231936      -305.6365 
   5   2.0000     -11.231470      -305.6238 
   6   2.0000      -1.143996       -31.1297 
   7   2.0000      -1.008272       -27.4365 
   8   2.0000      -1.008025       -27.4297 
   9   2.0000      -0.816633       -22.2217 
  10   2.0000      -0.815744       -22.1975 
  11   2.0000      -0.700049       -19.0493 
  12   2.0000      -0.634597       -17.2683 
  13   2.0000      -0.612279       -16.6610 
  14   2.0000      -0.580315       -15.7912 
  15   2.0000      -0.579702       -15.7745 
  16   2.0000      -0.496646       -13.5144 
  17   2.0000      -0.488272       -13.2866 
  18   2.0000      -0.486830       -13.2473 
  19   2.0000      -0.331501        -9.0206 
  20   2.0000      -0.330704        -8.9989 
  21   0.0000       0.145719         3.9652 
  22   0.0000       0.146086         3.9752 
  23   0.0000       0.230765         6.2794 
  24   0.0000       0.290830         7.9139 
  25   0.0000       0.291765         7.9393 
  26   0.0000       0.329966         8.9788 
  27   0.0000       0.331197         9.0123 
  28   0.0000       0.334256         9.0956 
  29   0.0000       0.365374         9.9423 
  30   0.0000       0.469652        12.7799 
  31   0.0000       0.471571        12.8321 
  32   0.0000       0.495345        13.4790 
  33   0.0000       0.497577        13.5397 
  34   0.0000       0.658625        17.9221 
  35   0.0000       0.741885        20.1877 
  36   0.0000       0.753760        20.5109 
  37   0.0000       0.777734        21.1632 
  38   0.0000       0.779633        21.2149 
  39   0.0000       0.795060        21.6347 
  40   0.0000       0.830116        22.5886 
  41   0.0000       0.830818        22.6077 
  42   0.0000       0.848837        23.0980 
  43   0.0000       0.849954        23.1284 
  44   0.0000       0.853206        23.2169 
  45   0.0000       0.853733        23.2313 
  46   0.0000       0.912142        24.8206 
  47   0.0000       0.912167        24.8213 
  48   0.0000       0.993770        27.0419 
  49   0.0000       1.106541        30.1105 
  50   0.0000       1.106869        30.1194 
  51   0.0000       1.111399        30.2427 
  52   0.0000       1.113182        30.2912 
  53   0.0000       1.126307        30.6484 
  54   0.0000       1.190336        32.3907 
  55   0.0000       1.191847        32.4318 
  56   0.0000       1.198056        32.6008 
  57   0.0000       1.245487        33.8914 
  58   0.0000       1.309808        35.6417 
  59   0.0000       1.311879        35.6981 
  60   0.0000       1.385793        37.7093 
  61   0.0000       1.389684        37.8152 
  62   0.0000       1.460249        39.7354 
  63   0.0000       1.516444        41.2645 
  64   0.0000       1.662244        45.2320 
  65   0.0000       1.688489        45.9461 
  66   0.0000       1.691058        46.0160 
  67   0.0000       1.764972        48.0273 
  68   0.0000       1.766239        48.0618 
  69   0.0000       1.795477        48.8574 
  70   0.0000       1.796455        48.8840 
  71   0.0000       2.052487        55.8510 
  72   0.0000       2.091850        56.9221 
  73   0.0000       2.158956        58.7482 
  74   0.0000       2.159783        58.7707 
  75   0.0000       2.291305        62.3496 
  76   0.0000       2.292729        62.3883 
  77   0.0000       2.394650        65.1617 
  78   0.0000       2.398004        65.2530 
  79   0.0000       2.466901        67.1278 
  80   0.0000       2.468475        67.1706 
  81   0.0000       2.476429        67.3871 
  82   0.0000       2.478751        67.4502 
  83   0.0000       2.635487        71.7152 
  84   0.0000       2.638879        71.8075 
  85   0.0000       2.647707        72.0478 
  86   0.0000       2.874365        78.2154 
  87   0.0000       2.875881        78.2567 
  88   0.0000       3.001753        81.6819 
  89   0.0000       3.066619        83.4470 
  90   0.0000       3.069900        83.5362 
  91   0.0000       3.082042        83.8666 
  92   0.0000       3.086928        83.9996 
  93   0.0000       3.088285        84.0365 
  94   0.0000       3.393751        92.3487 
  95   0.0000       3.786194       103.0276 

--------------------
FRAGMENT INFORMATION
--------------------
Fragment  1:    0   1   2   3   4   5   6   7   8   9 
               10  11 


                    ********************************
                    * MULLIKEN POPULATION ANALYSIS *
                    ********************************

-------------------------
MULLIKEN FRAGMENT CHARGES
-------------------------
 Fragment   0 :   0.000000
Sum of fragment charges:    0.0000000

---------------------------------
MULLIKEN FRAGMENT OVERLAP CHARGES
---------------------------------
                  0    
      0      51.762614

-----------------------
MULLIKEN ATOMIC CHARGES
-----------------------
   0 C :   -0.207721
   1 C :   -0.205353
   2 C :   -0.205733
   3 H :    0.206264
   4 H :    0.208596
   5 H :    0.203946
   6 C :   -0.207722
   7 C :   -0.205353
   8 C :   -0.205733
   9 H :    0.206265
  10 H :    0.208597
  11 H :    0.203946
Sum of atomic charges:    0.0000000

--------------------------------
MULLIKEN REDUCED ORBITAL CHARGES
--------------------------------
  0 C s       :     3.174628  s :     3.174628
      pz      :     0.950528  p :     2.986807
      px      :     0.966720
      py      :     1.069558
      dz2     :     0.009498  d :     0.046286
      dxz     :     0.007390
      dyz     :     0.008374
      dx2y2   :     0.011238
      dxy     :     0.009786
  1 C s       :     3.174508  s :     3.174508
      pz      :     1.012086  p :     2.984615
      px      :     1.038533
      py      :     0.933997
      dz2     :     0.006213  d :     0.046230
      dxz     :     0.008669
      dyz     :     0.010421
      dx2y2   :     0.010322
      dxy     :     0.010605
  2 C s       :     3.175093  s :     3.175093
      pz      :     1.018203  p :     2.984345
      px      :     0.977392
      py      :     0.988750
      dz2     :     0.006134  d :     0.046296
      dxz     :     0.007316
      dyz     :     0.012021
      dx2y2   :     0.010181
      dxy     :     0.010644
  3 H s       :     0.793736  s :     0.793736
  4 H s       :     0.791404  s :     0.791404
  5 H s       :     0.796054  s :     0.796054
  6 C s       :     3.174626  s :     3.174626
      pz      :     0.950528  p :     2.986810
      px      :     0.966721
      py      :     1.069561
      dz2     :     0.009498  d :     0.046286
      dxz     :     0.007390
      dyz     :     0.008374
      dx2y2   :     0.011238
      dxy     :     0.009786
  7 C s       :     3.174508  s :     3.174508
      pz      :     1.012087  p :     2.984616
      px      :     1.038533
      py      :     0.933996
      dz2     :     0.006213  d :     0.046230
      dxz     :     0.008669
      dyz     :     0.010422
      dx2y2   :     0.010322
      dxy     :     0.010605
  8 C s       :     3.175096  s :     3.175096
      pz      :     1.018201  p :     2.984341
      px      :     0.977391
      py      :     0.988749
      dz2     :     0.006134  d :     0.046296
      dxz     :     0.007316
      dyz     :     0.012021
      dx2y2   :     0.010181
      dxy     :     0.010644
  9 H s       :     0.793735  s :     0.793735
 10 H s       :     0.791403  s :     0.791403
 11 H s       :     0.796054  s :     0.796054

------------------------
MULLIKEN OVERLAP CHARGES
------------------------
B(  0-C ,  1-C ) :   1.0975 B(  0-C ,  2-C ) :  -0.0909 B(  0-C ,  3-H ) :   0.7640 
B(  0-C ,  4-H ) :  -0.0604 B(  0-C ,  6-C ) :  -0.0657 B(  0-C ,  7-C ) :  -0.0894 
B(  0-C ,  8-C ) :   1.1004 B(  0-C , 11-H ) :  -0.0612 B(  1-C ,  2-C ) :   1.1024 
B(  1-C ,  3-H ) :  -0.0605 B(  1-C ,  4-H ) :   0.7640 B(  1-C ,  5-H ) :  -0.0612 
B(  1-C ,  6-C ) :  -0.0894 B(  1-C ,  7-C ) :  -0.0654 B(  1-C ,  8-C ) :  -0.0899 
B(  2-C ,  4-H ) :  -0.0594 B(  2-C ,  5-H ) :   0.7653 B(  2-C ,  6-C ) :   1.1004 
B(  2-C ,  7-C ) :  -0.0899 B(  2-C ,  8-C ) :  -0.0653 B(  2-C ,  9-H ) :  -0.0607 
B(  3-H ,  8-C ) :  -0.0607 B(  5-H ,  6-C ) :  -0.0612 B(  6-C ,  7-C ) :   1.0975 
B(  6-C ,  8-C ) :  -0.0909 B(  6-C ,  9-H ) :   0.7640 B(  6-C , 10-H ) :  -0.0604 
B(  7-C ,  8-C ) :   1.1024 B(  7-C ,  9-H ) :  -0.0605 B(  7-C , 10-H ) :   0.7640 
B(  7-C , 11-H ) :  -0.0612 B(  8-C , 10-H ) :  -0.0594 B(  8-C , 11-H ) :   0.7653 



                     *******************************
                     * LOEWDIN POPULATION ANALYSIS *
                     *******************************

------------------------
LOEWDIN FRAGMENT CHARGES
------------------------
 Fragment   0 :   0.000000

----------------------------
LOEWDIN FRAGMENT BOND ORDERS
----------------------------
                  0    
      0      73.469359

----------------------
LOEWDIN ATOMIC CHARGES
----------------------
   0 C :   -0.139576
   1 C :   -0.137930
   2 C :   -0.138389
   3 H :    0.138465
   4 H :    0.139671
   5 H :    0.137759
   6 C :   -0.139576
   7 C :   -0.137930
   8 C :   -0.138389
   9 H :    0.138465
  10 H :    0.139671
  11 H :    0.137759

-------------------------------
LOEWDIN REDUCED ORBITAL CHARGES
-------------------------------
  0 C s       :     2.914895  s :     2.914895
      pz      :     1.027882  p :     3.131418
      px      :     1.030036
      py      :     1.073500
      dz2     :     0.018745  d :     0.093263
      dxz     :     0.016242
      dyz     :     0.017327
      dx2y2   :     0.021670
      dxy     :     0.019278
  1 C s       :     2.915313  s :     2.915313
      pz      :     1.030857  p :     3.129520
      px      :     1.034732
      py      :     1.063930
      dz2     :     0.012105  d :     0.093098
      dxz     :     0.014409
      dyz     :     0.022533
      dx2y2   :     0.022135
      dxy     :     0.021916
  2 C s       :     2.914855  s :     2.914855
[...]
   Maximum angular momentum in Aux-J        ...      3
Auxiliary J/K fitting basis                 ... AVAILABLE
   # of basis functions in Aux-JK           ...    750
   # of shells in Aux-JK                    ...    282
   Maximum angular momentum in Aux-JK       ...      3
Auxiliary Correlation fitting basis         ... AVAILABLE
   # of basis functions in Aux-C            ...    750
   # of shells in Aux-C                     ...    282
   Maximum angular momentum in Aux-C        ...      3
Auxiliary 'external' fitting basis          ... NOT available
Integral threshold                          ...     2.500000e-11
Primitive cut-off                           ...     2.500000e-12
Primitive pair pre-selection threshold      ...     2.500000e-12

ok
Entering RIJCOSX section for the Fock matrix
Trying to retrieve the full J-matrix              ... done
Updating the Fock matrix                          ... done
Making the frozen core Coulomb matrix             ... SHARK==>> SHARK/AuxDens: NDens=1 Thresh =     2.500000e-11 TCut=    2.500000e-12 Lmax=2 LmaxAux=3
    -> Making Hermite density - ok     0.003 sec
    -> Making Aux-basis density - (lmax=2)
    -> L=0 0:    0.011 sec done=    110412 ( 87.6%) skipped=     15642 
    -> L=1 0:    0.012 sec done=     96366 ( 94.9%) skipped=      5154 
    -> L=1 1:    0.002 sec done=     21969 ( 99.9%) skipped=        27 
    -> L=2 0:    0.003 sec done=     44456 ( 87.6%) skipped=      6304 
    -> L=2 1:    0.002 sec done=     19880 ( 97.9%) skipped=       424 
    -> L=2 2:    0.001 sec done=      5703 ( 96.3%) skipped=       219 
    -> Aux basis density formed in    0.1 sec
    -> Solving linear equations - ok (   0.0 sec)
        Auxbasis Hermite Density:
        P|s>                     ...  0.000
        P|p>                     ...  0.000
        P|d>                     ...  0.000
        P|f>                     ...  0.000
        Building the Coulomb matrix: 
        J|ss>                          ... done (  0.0 sec) ndone=   608314 nskipped1=    24446 nskipped2=    15558
        J|ps>                          ... done (  0.0 sec) ndone=   437582 nskipped1=     1938 nskipped2=     8860
        J|pp>                          ... done (  0.0 sec) ndone=    80706 nskipped1=        0 nskipped2=     1356
        J|ds>                          ... done (  0.0 sec) ndone=   127394 nskipped1=     5716 nskipped2=     2250
        J|dp>                          ... done (  0.0 sec) ndone=    40608 nskipped1=        0 nskipped2=        0
        J|dd>                          ... done (  0.0 sec) ndone=     5922 nskipped1=        0 nskipped2=        0
        Coulomb matrix built in   0.4 sec

        Total time for Split-RI-J                ...    1.319 sec
          (0) Prelude                            ...    0.000 sec
          (1) Hermite density                    ...    0.000 sec
          (2) Aux basis density                  ...    0.000 sec (inner=  0.0)
          (3) Linear equation solution           ...    0.000 sec
          (4) J-Matrix construction              ...    0.396 sec (inner=  0.0)
        ---------------------------------------------------------
done
Retrieving the full K-matrix                      ... done
Calculating the frozen core K-matrix              ... done
Updating the Fock matrix                          ... done
Recanonicalizing the internal orbitals
Recanonicalizing the virtual orbitals
Time needed for Fock operator              ...            3.916 sec
Reference energy                           ...   -230.701872523

<ss|**>: ------------------------------
PARTIAL COULOMB TRANSFORMATION
------------------------------

Transformation type                        ... one-operator
Dimension of the basis                     ...   96
Number of internal MOs                     ...   90 (6-95)
Pair cutoff                                ... 0.000e+00 Eh
Number of AO pairs included in the trafo   ... 4656
Total Number of distinct AO pairs          ... 4656
Memory devoted for trafo                   ... 5000.0 MB 
Max. Number of MO pairs treated together   ... 140756      
Max. Number of MOs treated per batch       ... 1466      
Number Format for Storage                  ... Double (8 Byte)
AO-integral source                         ... DIRECT
Integral package used                      ... LIBINT

Starting integral evaluation:
<sp|**>:       517626 b        0 skpd     0.280 s (  0.001 ms/b)
      416880 b        0 skpd     0.360 s (  0.001 ms/b)
<sd|**>: <pp|**>:       208440 b        0 skpd     0.255 s (  0.001 ms/b)
       90324 b        0 skpd     0.136 s (  0.002 ms/b)
<pd|**>:        83376 b        0 skpd     0.150 s (  0.002 ms/b)
<dd|**>:        24318 b        0 skpd     0.075 s (  0.003 ms/b)
Closing buffer AOJ ( 0.14 GB; CompressionRatio= 1.00)
Collecting buffer AOJ 
    ... done with AO integral generation
Number of MO pairs included in the trafo   ... 4095
    ... Now sorting integrals
IBATCH = 1 of  1
Closing buffer JAO ( 0.14 GB; CompressionRatio= 1.00)
Collecting buffer JAO 
TOTAL TIME for half transformation         ...     5.237 sec
AO-integral generation                     ...     1.030 sec
Half transformation                        ...     0.226 sec
J-integral sorting                         ...     3.464 sec

-------------------------- SECOND HALF TRANSFORMATION --------------------------
Formation of (pq|rs)                       ... ok (     0.464 sec)
Integral sorting                           ... ok (     3.286 sec)

------------------
CLOSED SHELL GUESS
------------------

Initial guess performed in     1.696 sec
E(0)                                       ...   -230.701872523
E(MP2)                                     ...     -0.748294112
Initial E(tot)                             ...   -231.450166634
<T|T>                                      ...      0.279338118
Number of pairs included                   ... 120
Total number of pairs                      ... 120

------------------------------------------------
                  RHF COUPLED CLUSTER ITERATIONS
------------------------------------------------

Number of amplitudes to be optimized       ... 676125

Iter       E(tot)           E(Corr)          Delta-E          Residual     Time
  0   -231.450166634     -0.748294112      0.000000000      0.028203268   13.68
                           *** Turning on DIIS ***
  1   -231.460609732     -0.758737209     -0.010443098      0.007294425    2.37
  2   -231.482434643     -0.780562120     -0.021824910      0.003207619   11.18
  3   -231.487382048     -0.785509525     -0.004947405      0.001761138    6.04
  4   -231.488615177     -0.786742654     -0.001233129      0.000659955   12.08
  5   -231.488894315     -0.787021792     -0.000279138      0.000222989    7.76
  6   -231.488951823     -0.787079300     -0.000057508      0.000056570   10.89
  7   -231.488961037     -0.787088515     -0.000009214      0.000012823   11.86
  8   -231.488961931     -0.787089409     -0.000000894      0.000003804   10.83
               --- The Coupled-Cluster iterations have converged ---

----------------------
COUPLED CLUSTER ENERGY
----------------------

E(0)                                       ...   -230.701872523
E(CORR)                                    ...     -0.787089409
E(TOT)                                     ...   -231.488961931
Singles Norm <S|S>**1/2                    ...      0.058941443  
T1 diagnostic                              ...      0.010761186  

------------------
LARGEST AMPLITUDES
------------------
  20-> 21  20-> 21       0.074957
  19-> 22  19-> 22       0.074551
  20-> 22  20-> 22       0.053688
  19-> 21  19-> 21       0.053532
  20-> 22  19-> 21       0.037383
  20-> 29  16-> 21       0.034609
  19-> 29  16-> 22       0.034560
  16-> 22  16-> 22       0.028715
  16-> 21  16-> 21       0.028684
  20-> 41  -1-> -1       0.028480
  19-> 40  -1-> -1       0.028400
  16-> 29  16-> 29       0.027505
  20-> 21  19-> 21       0.027323
  20-> 22  20-> 21       0.027296
  20-> 21  20-> 22       0.027296
  19-> 21  19-> 22       0.027227


        !!!!!!!!!!!!!!!!!!!!!!!!!!!!!!!!!!!!!!!!!!!!!!!!!!!!!!!!!!!!!!!!!!!!!!!!!! 
        !  Warning: Densities are linearized densities !                         !
        !!!!!!!!!!!!!!!!!!!!!!!!!!!!!!!!!!!!!!!!!!!!!!!!!!!!!!!!!!!!!!!!!!!!!!!!!! 

Trace of internal density part =     -0.647909424
Trace of external density part =      0.647909424
NORM  =      1.327428805 sqrt=     1.152140966
W(HF) =      0.753336070
------------------------------------------------------------------------------
                           ORCA POPULATION ANALYSIS
------------------------------------------------------------------------------
Input electron density              ... C6H6--12C6H12_0_1_eom-ccsd_xtb_6-31gpol_RC-1-layer.eom.mdcip
BaseName (.gbw .S,...)              ... C6H6--12C6H12_0_1_eom-ccsd_xtb_6-31gpol_RC-1-layer.eom

                    ********************************
                    * MULLIKEN POPULATION ANALYSIS *
                    ********************************

-------------------------
MULLIKEN FRAGMENT CHARGES
-------------------------
 Fragment   0 :   0.000000
Sum of fragment charges:    0.0000000

---------------------------------
MULLIKEN FRAGMENT OVERLAP CHARGES
---------------------------------
                  0    
      0      50.011010

-----------------------
MULLIKEN ATOMIC CHARGES
-----------------------
   0 C :   -0.177348
   1 C :   -0.175730
   2 C :   -0.175353
   3 H :    0.176097
   4 H :    0.178512
   5 H :    0.173822
   6 C :   -0.177348
   7 C :   -0.175730
   8 C :   -0.175353
   9 H :    0.176097
  10 H :    0.178512
  11 H :    0.173822
Sum of atomic charges:    0.0000000

--------------------------------
MULLIKEN REDUCED ORBITAL CHARGES
--------------------------------
  0 C s       :     3.166683  s :     3.166683
      pz      :     0.954045  p :     2.952286
      px      :     0.965697
      py      :     1.032544
      dz2     :     0.012525  d :     0.058380
      dxz     :     0.009525
      dyz     :     0.010522
      dx2y2   :     0.013684
      dxy     :     0.012125
  1 C s       :     3.166681  s :     3.166681
      pz      :     0.997326  p :     2.950731
      px      :     1.014771
      py      :     0.938634
      dz2     :     0.008878  d :     0.058318
      dxz     :     0.010998
      dyz     :     0.012845
      dx2y2   :     0.012626
      dxy     :     0.012971
  2 C s       :     3.167196  s :     3.167196
      pz      :     1.000455  p :     2.949778
      px      :     0.972835
      py      :     0.976488
      dz2     :     0.008784  d :     0.058378
      dxz     :     0.009442
      dyz     :     0.014630
      dx2y2   :     0.012430
      dxy     :     0.013092
  3 H s       :     0.823903  s :     0.823903
  4 H s       :     0.821488  s :     0.821488
  5 H s       :     0.826178  s :     0.826178
  6 C s       :     3.166683  s :     3.166683
      pz      :     0.954045  p :     2.952285
      px      :     0.965697
      py      :     1.032544
      dz2     :     0.012525  d :     0.058380
      dxz     :     0.009525
      dyz     :     0.010522
      dx2y2   :     0.013684
      dxy     :     0.012125
  7 C s       :     3.166681  s :     3.166681
      pz      :     0.997326  p :     2.950731
      px      :     1.014771
      py      :     0.938634
      dz2     :     0.008878  d :     0.058318
      dxz     :     0.010998
      dyz     :     0.012845
      dx2y2   :     0.012626
      dxy     :     0.012971
  8 C s       :     3.167196  s :     3.167196
      pz      :     1.000455  p :     2.949778
      px      :     0.972835
      py      :     0.976488
      dz2     :     0.008784  d :     0.058378
      dxz     :     0.009442
      dyz     :     0.014630
      dx2y2   :     0.012430
      dxy     :     0.013092
  9 H s       :     0.823903  s :     0.823903
 10 H s       :     0.821488  s :     0.821488
 11 H s       :     0.826178  s :     0.826178

------------------------
MULLIKEN OVERLAP CHARGES
------------------------
B(  0-C ,  1-C ) :   0.8767 B(  0-C ,  2-C ) :  -0.0712 B(  0-C ,  3-H ) :   0.6999 
B(  0-C ,  4-H ) :  -0.0708 B(  0-C ,  6-C ) :  -0.0817 B(  0-C ,  7-C ) :  -0.0709 
B(  0-C ,  8-C ) :   0.8802 B(  0-C , 11-H ) :  -0.0713 B(  1-C ,  2-C ) :   0.8830 
B(  1-C ,  3-H ) :  -0.0704 B(  1-C ,  4-H ) :   0.7007 B(  1-C ,  5-H ) :  -0.0707 
B(  1-C ,  6-C ) :  -0.0709 B(  1-C ,  7-C ) :  -0.0812 B(  1-C ,  8-C ) :  -0.0705 
B(  2-C ,  4-H ) :  -0.0683 B(  2-C ,  5-H ) :   0.7007 B(  2-C ,  6-C ) :   0.8802 
B(  2-C ,  7-C ) :  -0.0705 B(  2-C ,  8-C ) :  -0.0810 B(  2-C ,  9-H ) :  -0.0702 
B(  3-H ,  8-C ) :  -0.0702 B(  5-H ,  6-C ) :  -0.0713 B(  6-C ,  7-C ) :   0.8767 
B(  6-C ,  8-C ) :  -0.0712 B(  6-C ,  9-H ) :   0.6999 B(  6-C , 10-H ) :  -0.0708 
B(  7-C ,  8-C ) :   0.8830 B(  7-C ,  9-H ) :  -0.0704 B(  7-C , 10-H ) :   0.7007 
B(  7-C , 11-H ) :  -0.0707 B(  8-C , 10-H ) :  -0.0683 B(  8-C , 11-H ) :   0.7007 



                     *******************************
                     * LOEWDIN POPULATION ANALYSIS *
                     *******************************

------------------------
LOEWDIN FRAGMENT CHARGES
------------------------
 Fragment   0 :   0.000000

----------------------------
LOEWDIN FRAGMENT BOND ORDERS
----------------------------
                  0    
      0      71.593696

----------------------
LOEWDIN ATOMIC CHARGES
----------------------
   0 C :   -0.143126
   1 C :   -0.141802
   2 C :   -0.141912
   3 H :    0.142107
   4 H :    0.143304
   5 H :    0.141429
   6 C :   -0.143126
   7 C :   -0.141802
   8 C :   -0.141912
   9 H :    0.142107
  10 H :    0.143305
  11 H :    0.141429

-------------------------------
LOEWDIN REDUCED ORBITAL CHARGES
-------------------------------
  0 C s       :     2.916790  s :     2.916790
      pz      :     1.023502  p :     3.116476
      px      :     1.025623
      py      :     1.067351
      dz2     :     0.022059  d :     0.109860
      dxz     :     0.020199
      dyz     :     0.020562
      dx2y2   :     0.024682
      dxy     :     0.022357
  1 C s       :     2.917183  s :     2.917183
      pz      :     1.026438  p :     3.114948
      px      :     1.029867
      py      :     1.058643
      dz2     :     0.015396  d :     0.109671
      dxz     :     0.017578
      dyz     :     0.025990
      dx2y2   :     0.025549
      dxy     :     0.025158
  2 C s       :     2.916745  s :     2.916745
      pz      :     1.027465  p :     3.115287
      px      :     1.025803
      py      :     1.062020
      dz2     :     0.015206  d :     0.109880
      dxz     :     0.017156
      dyz     :     0.026573
      dx2y2   :     0.024702
      dxy     :     0.026243
  3 H s       :     0.857893  s :     0.857893
  4 H s       :     0.856696  s :     0.856696
  5 H s       :     0.858571  s :     0.858571
  6 C s       :     2.916790  s :     2.916790
      pz      :     1.023502  p :     3.116476
      px      :     1.025623
      py      :     1.067351
      dz2     :     0.022059  d :     0.109860
      dxz     :     0.020199
      dyz     :     0.020562
      dx2y2   :     0.024682
      dxy     :     0.022357
  7 C s       :     2.917183  s :     2.917183
      pz      :     1.026439  p :     3.114949
      px      :     1.029867
      py      :     1.058643
      dz2     :     0.015396  d :     0.109671
      dxz     :     0.017578
      dyz     :     0.025990
      dx2y2   :     0.025549
      dxy     :     0.025158
  8 C s       :     2.916745  s :     2.916745
      pz      :     1.027465  p :     3.115288
      px      :     1.025803
      py      :     1.062020
      dz2     :     0.015206  d :     0.109880
      dxz     :     0.017156
      dyz     :     0.026573
      dx2y2   :     0.024702
      dxy     :     0.026243
  9 H s       :     0.857893  s :     0.857893
 10 H s       :     0.856695  s :     0.856695
 11 H s       :     0.858571  s :     0.858571

---------------------------------
LOEWDIN BOND ORDERS (THRESH 0.050000)
---------------------------------
B(  0-C ,  1-C ) :   1.4066 B(  0-C ,  2-C ) :   0.0668 B(  0-C ,  3-H ) :   0.8616 
B(  0-C ,  6-C ) :   0.0932 B(  0-C ,  7-C ) :   0.0665 B(  0-C ,  8-C ) :   1.4082 
B(  1-C ,  2-C ) :   1.4061 B(  1-C ,  4-H ) :   0.8617 B(  1-C ,  6-C ) :   0.0665 
B(  1-C ,  7-C ) :   0.0939 B(  1-C ,  8-C ) :   0.0669 B(  2-C ,  5-H ) :   0.8619 
B(  2-C ,  6-C ) :   1.4082 B(  2-C ,  7-C ) :   0.0669 B(  2-C ,  8-C ) :   0.0935 
B(  6-C ,  7-C ) :   1.4066 B(  6-C ,  8-C ) :   0.0668 B(  6-C ,  9-H ) :   0.8616 
B(  7-C ,  8-C ) :   1.4061 B(  7-C , 10-H ) :   0.8617 B(  8-C , 11-H ) :   0.8619 



                      *****************************
                      * MAYER POPULATION ANALYSIS *
                      *****************************

  NA   - Mulliken gross atomic population
  ZA   - Total nuclear charge
  QA   - Mulliken gross atomic charge
  VA   - Mayer's total valence
  BVA  - Mayer's bonded valence
  FA   - Mayer's free valence

  ATOM       NA         ZA         QA         VA         BVA        FA
  0 C      6.1773     6.0000    -0.1773     4.0076     3.6419     0.3657
  1 C      6.1757     6.0000    -0.1757     4.0090     3.6431     0.3658
  2 C      6.1754     6.0000    -0.1754     4.0127     3.6471     0.3655
  3 H      0.8239     1.0000     0.1761     0.9376     0.8847     0.0529
  4 H      0.8215     1.0000     0.1785     0.9370     0.8843     0.0527
  5 H      0.8262     1.0000     0.1738     0.9383     0.8853     0.0529
  6 C      6.1773     6.0000    -0.1773     4.0076     3.6419     0.3657
  7 C      6.1757     6.0000    -0.1757     4.0090     3.6431     0.3658
  8 C      6.1754     6.0000    -0.1754     4.0127     3.6471     0.3655
  9 H      0.8239     1.0000     0.1761     0.9376     0.8847     0.0529
 10 H      0.8215     1.0000     0.1785     0.9370     0.8843     0.0527
 11 H      0.8262     1.0000     0.1738     0.9383     0.8853     0.0529

  Mayer bond orders larger than 0.100000
B(  0-C ,  1-C ) :   1.3434 B(  0-C ,  3-H ) :   0.8902 B(  0-C ,  8-C ) :   1.3459 
B(  1-C ,  2-C ) :   1.3464 B(  1-C ,  4-H ) :   0.8898 B(  2-C ,  5-H ) :   0.8912 
B(  2-C ,  6-C ) :   1.3459 B(  6-C ,  7-C ) :   1.3434 B(  6-C ,  9-H ) :   0.8902 
B(  7-C ,  8-C ) :   1.3464 B(  7-C , 10-H ) :   0.8898 B(  8-C , 11-H ) :   0.8912 



---------------------------------------------------
            RHF EOM-CCSD CALCULATION
---------------------------------------------------

EOM type                                   ... EE-EOM
Eigenvectors                               ... RHS
Solver                                     ... Davidson
K(R) Formation                             ... MO
Convergence check                          ... for each root separately
Convergence threshold                      ... 1.00E-05
Root homing                                ... on
Preconditioning update                     ... CIS
Reduced space size (times number of roots) ... 40
Number of roots in the CIS initial guess   ... 800
Number of roots to be optimized            ... 20
Solving roots                              ... together
Number of amplitudes to be optimized       ... 676125

--------------------------------
AUTOMATIC CHOICE OF INCORE LEVEL
--------------------------------

Memory available                           ...   5000.00 MB
Memory needed for Residual-vectors         ...    103.00 MB
Memory needed for Ritz-vectors             ...    103.00 MB
Memory needed for 3-ext integrals          ...      0.00 MB
Memory needed for Sigma-vectors            ...   4119.87 MB
Memory needed for State-vectors            ...   4119.87 MB
 -> Final InCoreLevel    ... 4


Dressing integrals for EOM-CCSD            ... done (   16.3)
Building the initial guess                 ... done (    0.3)

Iter    Delta-E          Residual              Time
---------------------------------------------------
