
                                 *****************
                                 * O   R   C   A *
                                 *****************

                                            #,                                       
                                            ###                                      
                                            ####                                     
                                            #####                                    
                                            ######                                   
                                           ########,                                 
                                     ,,################,,,,,                         
                               ,,#################################,,                 
                          ,,##########################################,,             
                       ,#########################################, ''#####,          
                    ,#############################################,,   '####,        
                  ,##################################################,,,,####,       
                ,###########''''           ''''###############################       
              ,#####''   ,,,,##########,,,,          '''####'''          '####       
            ,##' ,,,,###########################,,,                        '##       
           ' ,,###''''                  '''############,,,                           
         ,,##''                                '''############,,,,        ,,,,,,###''
      ,#''                                            '''#######################'''  
     '                                                          ''''####''''         
             ,#######,   #######,   ,#######,      ##                                
            ,#'     '#,  ##    ##  ,#'     '#,    #''#        ######   ,####,        
            ##       ##  ##   ,#'  ##            #'  '#       #        #'  '#        
            ##       ##  #######   ##           ,######,      #####,   #    #        
            '#,     ,#'  ##    ##  '#,     ,#' ,#      #,         ##   #,  ,#        
             '#######'   ##     ##  '#######'  #'      '#     #####' # '####'        



                  #######################################################
                  #                        -***-                        #
                  #          Department of theory and spectroscopy      #
                  #    Directorship and core code : Frank Neese         #
                  #        Max Planck Institute fuer Kohlenforschung    #
                  #                Kaiser Wilhelm Platz 1               #
                  #                 D-45470 Muelheim/Ruhr               #
                  #                      Germany                        #
                  #                                                     #
                  #                  All rights reserved                #
                  #                        -***-                        #
                  #######################################################


                         Program Version 5.0.2 -  RELEASE  -


 With contributions from (in alphabetic order):
   Daniel Aravena         : Magnetic Suceptibility
   Michael Atanasov       : Ab Initio Ligand Field Theory (pilot matlab implementation)
   Alexander A. Auer      : GIAO ZORA, VPT2 properties, NMR spectrum
   Ute Becker             : Parallelization
   Giovanni Bistoni       : ED, misc. LED, open-shell LED, HFLD
   Martin Brehm           : Molecular dynamics
   Dmytro Bykov           : SCF Hessian
   Vijay G. Chilkuri      : MRCI spin determinant printing, contributions to CSF-ICE
   Dipayan Datta          : RHF DLPNO-CCSD density
   Achintya Kumar Dutta   : EOM-CC, STEOM-CC
   Dmitry Ganyushin       : Spin-Orbit,Spin-Spin,Magnetic field MRCI
   Miquel Garcia          : C-PCM and meta-GGA Hessian, CC/C-PCM, Gaussian charge scheme
   Yang Guo               : DLPNO-NEVPT2, F12-NEVPT2, CIM, IAO-localization
   Andreas Hansen         : Spin unrestricted coupled pair/coupled cluster methods
   Benjamin Helmich-Paris : MC-RPA, TRAH-SCF, COSX integrals
   Lee Huntington         : MR-EOM, pCC
   Robert Izsak           : Overlap fitted RIJCOSX, COSX-SCS-MP3, EOM
   Marcus Kettner         : VPT2
   Christian Kollmar      : KDIIS, OOCD, Brueckner-CCSD(T), CCSD density, CASPT2, CASPT2-K
   Simone Kossmann        : Meta GGA functionals, TD-DFT gradient, OOMP2, MP2 Hessian
   Martin Krupicka        : Initial AUTO-CI
   Lucas Lang             : DCDCAS
   Marvin Lechner         : AUTO-CI (C++ implementation), FIC-MRCC
   Dagmar Lenk            : GEPOL surface, SMD
   Dimitrios Liakos       : Extrapolation schemes; Compound Job, initial MDCI parallelization
   Dimitrios Manganas     : Further ROCIS development; embedding schemes
   Dimitrios Pantazis     : SARC Basis sets
   Anastasios Papadopoulos: AUTO-CI, single reference methods and gradients
   Taras Petrenko         : DFT Hessian,TD-DFT gradient, ASA, ECA, R-Raman, ABS, FL, XAS/XES, NRVS
   Peter Pinski           : DLPNO-MP2, DLPNO-MP2 Gradient
   Christoph Reimann      : Effective Core Potentials
   Marius Retegan         : Local ZFS, SOC
   Christoph Riplinger    : Optimizer, TS searches, QM/MM, DLPNO-CCSD(T), (RO)-DLPNO pert. Triples
   Tobias Risthaus        : Range-separated hybrids, TD-DFT gradient, RPA, STAB
   Michael Roemelt        : Original ROCIS implementation
   Masaaki Saitow         : Open-shell DLPNO-CCSD energy and density
   Barbara Sandhoefer     : DKH picture change effects
   Avijit Sen             : IP-ROCIS
   Kantharuban Sivalingam : CASSCF convergence, NEVPT2, FIC-MRCI
   Bernardo de Souza      : ESD, SOC TD-DFT
   Georgi Stoychev        : AutoAux, RI-MP2 NMR, DLPNO-MP2 response
   Willem Van den Heuvel  : Paramagnetic NMR
   Boris Wezisla          : Elementary symmetry handling
   Frank Wennmohs         : Technical directorship


 We gratefully acknowledge several colleagues who have allowed us to
 interface, adapt or use parts of their codes:
   Stefan Grimme, W. Hujo, H. Kruse, P. Pracht,  : VdW corrections, initial TS optimization,
                  C. Bannwarth, S. Ehlert          DFT functionals, gCP, sTDA/sTD-DF
   Ed Valeev, F. Pavosevic, A. Kumar             : LibInt (2-el integral package), F12 methods
   Garnet Chan, S. Sharma, J. Yang, R. Olivares  : DMRG
   Ulf Ekstrom                                   : XCFun DFT Library
   Mihaly Kallay                                 : mrcc  (arbitrary order and MRCC methods)
   Jiri Pittner, Ondrej Demel                    : Mk-CCSD
   Frank Weinhold                                : gennbo (NPA and NBO analysis)
   Christopher J. Cramer and Donald G. Truhlar   : smd solvation model
   Lars Goerigk                                  : TD-DFT with DH, B97 family of functionals
   V. Asgeirsson, H. Jonsson                     : NEB implementation
   FAccTs GmbH                                   : IRC, NEB, NEB-TS, DLPNO-Multilevel, CI-OPT
                                                   MM, QMMM, 2- and 3-layer-ONIOM, Crystal-QMMM,
                                                   LR-CPCM, SF, NACMEs, symmetry and pop. for TD-DFT,
                                                   nearIR, NL-DFT gradient (VV10), updates on ESD,
                                                   ML-optimized integration grids
   S Lehtola, MJT Oliveira, MAL Marques          : LibXC Library
   Liviu Ungur et al                             : ANISO software


 Your calculation uses the libint2 library for the computation of 2-el integrals
 For citations please refer to: http://libint.valeyev.net

 Your ORCA version has been built with support for libXC version: 5.1.0
 For citations please refer to: https://tddft.org/programs/libxc/

 This ORCA versions uses:
   CBLAS   interface :  Fast vector & matrix operations
   LAPACKE interface :  Fast linear algebra routines
   SCALAPACK package :  Parallel linear algebra routines
   Shared memory     :  Shared parallel matrices
   BLAS/LAPACK       :  OpenBLAS 0.3.15  USE64BITINT DYNAMIC_ARCH NO_AFFINITY SkylakeX SINGLE_THREADED
        Core in use  :  SkylakeX
   Copyright (c) 2011-2014, The OpenBLAS Project




***************************************
The coordinates will be read from file: C6H6--12C6H12_0_1_bp86_xtb_6-31gpol_RC-1-layer.optH.xyz
***************************************


Your calculation utilizes the atom-pairwise dispersion correction
based on tight binding partial charges (D4)
Cite in your paper:
E.Caldeweyher, C.Bannwarth, S.Grimme, J.Chem.Phys., (2017), 147, 034112.
E.Caldeweyher, S.Ehlert, A.Hansen, H.Neugebauer, S.Grimme, J.Chem.Phys., (2018), in progress.
   

XCFun DFT library Copyright 2009-2010 Ulf Ekstrom and contributors.
See http://admol.org/xcfun for more information.
This is free software; see the source code for copying conditions.
There is ABSOLUTELY NO WARRANTY; not even for MERCHANTABILITY or FITNESS FOR A PARTICULAR PURPOSE.
For details see the documentation.
Scientific users of this library should cite U. Ekstrom, L. Visscher, R. Bast, A. J. Thorvaldsen and K. Ruud;
J.Chem.Theor.Comp. 2010, DOI: 10.1021/ct100117s
XCFun Version 0.99 

Preparing ONIOM calculation             ...         done
================================================================================

----- Orbital basis set information -----
Your calculation utilizes the basis: 6-31G*
   H-He, Li-Ne : W. J. Hehre, R. Ditchfield and J.A. Pople, J. Chem. Phys. 56, 2257 (1972).
                 Note: He and Ne are unpublished basis sets taken from the Gaussian program.
                 Note: Li and B from J. D. Dill and J. A. Pople, J. Chem. Phys. 62, 2921 (1975).
   Na - Ar     : M. M. Francl, W. J. Pietro, W. J. Hehre, J. S. Binkley, M. S. Gordon, 
                 D. J. DeFrees and J. A. Pople, J. Chem. Phys. 77, 3654 (1982).
   K - Zn      : V. A. Rassolov, J. A. Pople, M. A. Ratner, and T. L. Windus, J. Chem. Phys. 109, 1223 (1998).

----- AuxJ basis set information -----
Your calculation utilizes the AutoAux generation procedure.
  G. L. Stoychev, A. A. Auer, F. Neese, J. Chem. Theory Comput. 13, 554 (2017)

----- AuxC basis set information -----
Your calculation utilizes the AutoAux generation procedure.
  G. L. Stoychev, A. A. Auer, F. Neese, J. Chem. Theory Comput. 13, 554 (2017)

----- AuxJK basis set information -----
Your calculation utilizes the AutoAux generation procedure.
  G. L. Stoychev, A. A. Auer, F. Neese, J. Chem. Theory Comput. 13, 554 (2017)

================================================================================
                                        WARNINGS
                       Please study these warnings very carefully!
================================================================================

INFO   : Checking CIS options ...

WARNING: CIS/ROCIS methods need fully converged wavefunctions
  ===> : Setting SCFConvForced true
         You can overwrite this default with %scf ConvForced false 


INFO   : the flag for use of the SHARK integral package has been found!

================================================================================
                                       INPUT FILE
================================================================================
NAME = C6H6--12C6H12_0_1_wb97x_xtb_6-31gpol_RC-1-layer.tddft.inp
|  1> !qm/xtb rks wb97x d4 6-31g* tightscf 
|  2> !rijcosx autoaux
|  3> !normalprint
|  4> !pal8
|  5> 
|  6> %scf
|  7>   maxiter 500
|  8> end
|  9> 
| 10> %qmmm
| 11>   qmatoms { 0:11 } end
| 12> end
| 13> 
| 14> %tddft
| 15>   nroots 20
| 16> end
| 17> 
| 18> *xyzfile 0 1 C6H6--12C6H12_0_1_bp86_xtb_6-31gpol_RC-1-layer.optH.xyz
| 19> 
| 20> %geom
| 21>   fragments
| 22>     1 { 0:11 } end
| 23>     2 { 12:155 } end
| 24>   end
| 25> end
| 26> 
| 27>                          ****END OF INPUT****
================================================================================

------------------------------------------------------------------------------

                             **************************
                             *    2-layered ONIOM     *
                             **************************


------------------------------------------------------------------------------




Multiscale model                       ... QM1/QM2
QM2 method                             ... XTB2
Coupling Scheme                        ... subtractive
Embedding Scheme                       ... electrostatic
PrintLevel                             ... 1
Method for determining QM2 charges     ... Hirshfeld
Charge of total system                 ... 0
Charge alteration scheme               ... Charge shifting
Scaling factor for CS scheme           ... 0.06
Gradient projection scheme             ... Lever rule
Scaling factor for QM2 charges         ... 1.00
AutoFF method                          ... XTB2
AutoFF boundary                        ... no covalent bonds
Point charges in QM calc. from MM atoms... 144
              from charge shift scheme ... 0
Printing trajectories, xyz and allxyz files:
        QMMMRegion                     ... YES
        activeRegion                   ... YES
        activeRegionExt                ... NO
        qmRegion                       ... YES
        qm2Region                      ... NO
Parameter files:
        ORCA Forcefield Filename       ... C6H6--12C6H12_0_1_wb97x_xtb_6-31gpol_RC-1-layer.tddft_L_QM2.ORCAFF.prms.tmp
        QM-LA bond distances Filename  ... C6H6--12C6H12_0_1_wb97x_xtb_6-31gpol_RC-1-layer.tddft.H_DIST.prms.tmp
Forcefield type                        ... ORCA
Size of different subsystems (in atoms):
Size of QMMM System                    ... 156
Size of QM2 Subsystem                  ... 144
Size of QM1 Subsystem                  ... 12
Number of link atoms                   ... 0
Size of QM1 Subsystem plus link atoms  ... 12
Size of region for optimizer           ... 156
        optimized atoms = activeRegion ... 156
        fixed atoms (distance cutoff)  ... 0 ( 1.0)
Composition of different systems (atoms start counting at 0):
QM1 Subsystem                          ...   0   1   2   3   4   5   6   7   8   9 
                                            10  11 
Active atoms                           ... All atoms 

                       ****************************
                       * Single Point Calculation *
                       ****************************

                    ************************************                      
                    *       QM/   XTB2 SP Energy       *                      
                    ************************************                      


------------------------------------------------------------------------------
                          XTB2 - FULL SYSTEM                         
------------------------------------------------------------------------------
Running XTB calculation
---------------------------------   --------------------
FINAL SINGLE POINT ENERGY (L-QM2)     -206.525318012660
---------------------------------   --------------------
------------------------------------------------------------------------------
                                  XTB2 - SMALL SYSTEM                         
------------------------------------------------------------------------------
Running XTB calculation
---------------------------------   --------------------
FINAL SINGLE POINT ENERGY (S-QM2)      -15.878394613050
---------------------------------   --------------------
------------------------------------------------------------------------------
                                QM - SMALL SYSTEM                           
------------------------------------------------------------------------------
---------------------------------
CARTESIAN COORDINATES (ANGSTROEM)
---------------------------------
  C      3.258314    3.406029    6.822806
  C      2.683797    4.306721    5.925964
  C      3.133319    5.626986    5.884872
  H      2.913263    2.365816    6.855213
  H      1.874896    3.989900    5.258481
  H      2.684789    6.330552    5.175403
  C      4.150986    6.048071    6.738994
  C      4.725503    5.147379    7.635836
  C      4.275981    3.827114    7.676928
  H      4.496037    7.088285    6.706587
  H      5.534403    5.464199    8.303319
  H      4.724510    3.123549    8.386396

----------------------------
CARTESIAN COORDINATES (A.U.)
----------------------------
  NO LB      ZA    FRAG     MASS         X           Y           Z
   0 C     6.0000    1    12.011    6.157321    6.436462   12.893235
   1 C     6.0000    1    12.011    5.071641    8.138523   11.198449
   2 C     6.0000    1    12.011    5.921115   10.633463   11.120796
   3 H     1.0000    1     1.008    5.505270    4.470744   12.954476
   4 H     1.0000    1     1.008    3.543040    7.539819    9.937089
   5 H     1.0000    1     1.008    5.073516   11.963010    9.780095
   6 C     6.0000    1    12.011    7.844227   11.429198   12.734853
   7 C     6.0000    1    12.011    8.929907    9.727137   14.429639
   8 C     6.0000    1    12.011    8.080433    7.232197   14.507292
   9 H     1.0000    1     1.008    8.496279   13.394917   12.673613
  10 H     1.0000    1     1.008   10.458507   10.325840   15.690998
  11 H     1.0000    1     1.008    8.928030    5.902652   15.847991

----------------------------------------------
CARTESIAN COORDINATES OF FRAGMENTS (ANGSTROEM)
----------------------------------------------

 FRAGMENT 1 
  C     3.258314    3.406029    6.822806
  C     2.683797    4.306721    5.925964
  C     3.133319    5.626986    5.884872
  H     2.913263    2.365816    6.855213
  H     1.874896    3.989900    5.258481
  H     2.684789    6.330552    5.175403
  C     4.150986    6.048071    6.738994
  C     4.725503    5.147379    7.635836
  C     4.275981    3.827114    7.676928
  H     4.496037    7.088285    6.706587
  H     5.534403    5.464199    8.303319
  H     4.724510    3.123549    8.386396

--------------------------------
INTERNAL COORDINATES (ANGSTROEM)
--------------------------------
 C      0   0   0     0.000000000000     0.00000000     0.00000000
 C      1   0   0     1.394862521062     0.00000000     0.00000000
 C      2   1   0     1.395298630602   119.81736024     0.00000000
 H      1   2   3     1.096427667302   120.13226101   180.37299123
 H      2   1   3     1.095550082324   120.60474645   180.57949070
 H      3   2   1     1.095230560055   119.66875970   179.62025584
 C      3   2   1     1.393729926654   120.20349063   359.82928291
 C      7   3   2     1.394862520998   119.97892897     0.17099412
 C      1   2   3     1.393729926624   119.97892897     0.17032980
 H      7   3   2     1.096428242772   119.88851193   180.37316718
 H      8   7   3     1.095549263241   120.60475455   179.25018782
 H      9   1   2     1.095229058612   120.12741314   179.61901158

---------------------------
INTERNAL COORDINATES (A.U.)
---------------------------
 C      0   0   0     0.000000000000     0.00000000     0.00000000
 C      1   0   0     2.635908159279     0.00000000     0.00000000
 C      2   1   0     2.636732286872   119.81736024     0.00000000
 H      1   2   3     2.071948016856   120.13226101   180.37299123
 H      2   1   3     2.070289621588   120.60474645   180.57949070
 H      3   2   1     2.069685812004   119.66875970   179.62025584
 C      3   2   1     2.633767866027   120.20349063   359.82928291
 C      7   3   2     2.635908159157   119.97892897     0.17099412
 C      1   2   3     2.633767865970   119.97892897     0.17032980
 H      7   3   2     2.071949104335   119.88851193   180.37316718
 H      8   7   3     2.070288073745   120.60475455   179.25018782
 H      9   1   2     2.069682974689   120.12741314   179.61901158

---------------------
BASIS SET INFORMATION
---------------------
There are 2 groups of distinct atoms

 Group   1 Type C   : 10s4p1d contracted to 3s2p1d pattern {631/31/1}
 Group   2 Type H   : 4s contracted to 2s pattern {31}

Atom   0C    basis set group =>   1
Atom   1C    basis set group =>   1
Atom   2C    basis set group =>   1
Atom   3H    basis set group =>   2
Atom   4H    basis set group =>   2
Atom   5H    basis set group =>   2
Atom   6C    basis set group =>   1
Atom   7C    basis set group =>   1
Atom   8C    basis set group =>   1
Atom   9H    basis set group =>   2
Atom  10H    basis set group =>   2
Atom  11H    basis set group =>   2
---------------------------------
AUXILIARY/J BASIS SET INFORMATION
---------------------------------
There are 2 groups of distinct atoms

 Group   1 Type C   : 13s11p10d2f contracted to 13s11p10d2f pattern {1111111111111/11111111111/1111111111/11}
 Group   2 Type H   : 9s2p contracted to 9s2p pattern {111111111/11}

Atom   0C    basis set group =>   1
Atom   1C    basis set group =>   1
Atom   2C    basis set group =>   1
Atom   3H    basis set group =>   2
Atom   4H    basis set group =>   2
Atom   5H    basis set group =>   2
Atom   6C    basis set group =>   1
Atom   7C    basis set group =>   1
Atom   8C    basis set group =>   1
Atom   9H    basis set group =>   2
Atom  10H    basis set group =>   2
Atom  11H    basis set group =>   2
---------------------------------
AUXILIARY/C BASIS SET INFORMATION
---------------------------------
There are 2 groups of distinct atoms

 Group   1 Type C   : 13s11p10d2f contracted to 13s11p10d2f pattern {1111111111111/11111111111/1111111111/11}
 Group   2 Type H   : 9s2p contracted to 9s2p pattern {111111111/11}

Atom   0C    basis set group =>   1
Atom   1C    basis set group =>   1
Atom   2C    basis set group =>   1
Atom   3H    basis set group =>   2
Atom   4H    basis set group =>   2
Atom   5H    basis set group =>   2
Atom   6C    basis set group =>   1
Atom   7C    basis set group =>   1
Atom   8C    basis set group =>   1
Atom   9H    basis set group =>   2
Atom  10H    basis set group =>   2
Atom  11H    basis set group =>   2
----------------------------------
AUXILIARY/JK BASIS SET INFORMATION
----------------------------------
There are 2 groups of distinct atoms

 Group   1 Type C   : 13s11p10d2f contracted to 13s11p10d2f pattern {1111111111111/11111111111/1111111111/11}
 Group   2 Type H   : 9s2p contracted to 9s2p pattern {111111111/11}

Atom   0C    basis set group =>   1
Atom   1C    basis set group =>   1
Atom   2C    basis set group =>   1
Atom   3H    basis set group =>   2
Atom   4H    basis set group =>   2
Atom   5H    basis set group =>   2
Atom   6C    basis set group =>   1
Atom   7C    basis set group =>   1
Atom   8C    basis set group =>   1
Atom   9H    basis set group =>   2
Atom  10H    basis set group =>   2
Atom  11H    basis set group =>   2


           ************************************************************
           *        Program running with 8 parallel MPI-processes     *
           *              working on a common directory               *
           ************************************************************
------------------------------------------------------------------------------
                           ORCA GTO INTEGRAL CALCULATION
                           -- RI-GTO INTEGRALS CHOSEN --
------------------------------------------------------------------------------
------------------------------------------------------------------------------
                   ___                                                        
                  /   \      - P O W E R E D   B Y -                         
                 /     \                                                     
                 |  |  |   _    _      __       _____    __    __             
                 |  |  |  | |  | |    /  \     |  _  \  |  |  /  |          
                  \  \/   | |  | |   /    \    | | | |  |  | /  /          
                 / \  \   | |__| |  /  /\  \   | |_| |  |  |/  /          
                |  |  |   |  __  | /  /__\  \  |    /   |      \           
                |  |  |   | |  | | |   __   |  |    \   |  |\   \          
                \     /   | |  | | |  |  |  |  | |\  \  |  | \   \       
                 \___/    |_|  |_| |__|  |__|  |_| \__\ |__|  \__/        
                                                                              
                      - O R C A' S   B I G   F R I E N D -                    
                                      &                                       
                       - I N T E G R A L  F E E D E R -                       
                                                                              
 v1 FN, 2020, v2 2021                                                         
------------------------------------------------------------------------------


Reading SHARK input file C6H6--12C6H12_0_1_wb97x_xtb_6-31gpol_RC-1-layer.tddft.SHARKINP.tmp ... SHARK General Contraction Test:  Segmented basis detected
   -> Pre-screening matrix *NOT* found on disk - recalculating with NShells=48
   -> Leaving CheckPreScreeningMatrix
ok
----------------------
SHARK INTEGRAL PACKAGE
----------------------

Number of atoms                             ...     12
Number of basis functions                   ...     96
Number of shells                            ...     48
Maximum angular momentum                    ...      2
Integral batch strategy                     ... SHARK/LIBINT Hybrid
RI-J (if used) integral strategy            ... SPLIT-RIJ (Revised 2003 algorithm where possible)
Printlevel                                  ...      2
Contraction scheme used                     ... SEGMENTED contraction
Coulomb Range Separation                    ... NOT USED
Exchange Range Separation                   ... Long Range
   Mu parameter                             ...  0.300000
   Scaling (regular/separated)              ...  0.157706  0.842294
Finite Nucleus Model                        ... NOT USED
Auxiliary Coulomb fitting basis             ... AVAILABLE
   # of basis functions in Aux-J            ...    750
   # of shells in Aux-J                     ...    282
   Maximum angular momentum in Aux-J        ...      3
Auxiliary J/K fitting basis                 ... AVAILABLE
   # of basis functions in Aux-JK           ...    750
   # of shells in Aux-JK                    ...    282
   Maximum angular momentum in Aux-JK       ...      3
Auxiliary Correlation fitting basis         ... AVAILABLE
   # of basis functions in Aux-C            ...    750
   # of shells in Aux-C                     ...    282
   Maximum angular momentum in Aux-C        ...      3
Auxiliary 'external' fitting basis          ... NOT available
Integral threshold                          ...     2.500000e-11
Primitive cut-off                           ...     2.500000e-12
Primitive pair pre-selection threshold      ...     2.500000e-12

Calculating pre-screening integrals         ... done (  0.0 sec) Dimension = 48
Organizing shell pair data                  ... done (  0.0 sec)
Shell pair information
Total number of shell pairs                 ...      1176
Shell pairs after pre-screening             ...      1158
Total number of primitive shell pairs       ...      6699
Primitive shell pairs kept                  ...      4825
          la=0 lb=0:    447 shell pairs
          la=1 lb=0:    360 shell pairs
          la=1 lb=1:     78 shell pairs
          la=2 lb=0:    180 shell pairs
          la=2 lb=1:     72 shell pairs
          la=2 lb=2:     21 shell pairs

Reading point charge file                   ... ok (144 point charges)
Calculating one electron integrals          ... done (  0.0 sec)
Calculating RI/J V-Matrix + Cholesky decomp.... done (  0.1 sec)
Calculating RI/JK V-Matrix + Cholesky decomp... done (  0.0 sec)
Calculating RI/C V-Matrix + Cholesky decomp.... done (  0.0 sec)
Calculating Nuclear repulsion               ... (+Point charges) done (  0.0 sec) ENN=    203.248506167121 Eh

SHARK setup successfully completed in   0.4 seconds

Maximum memory used throughout the entire GTOINT-calculation: 10.3 MB
ENUC WAS=  0.000000000
ENUC IS =  0.000000000


           ************************************************************
           *        Program running with 8 parallel MPI-processes     *
           *              working on a common directory               *
           ************************************************************
-------------------------------------------------------------------------------
                                 ORCA SCF
-------------------------------------------------------------------------------

------------
SCF SETTINGS
------------
Hamiltonian:
 Density Functional     Method          .... DFT(GTOs)
 Exchange Functional    Exchange        .... WB97X
 Correlation Functional Correlation     .... WB97X
 Gradients option       PostSCFGGA      .... off
 Hybrid DFT is turned on
   Fraction HF Exchange ScalHFX         ....  0.157706
   Scaling of DF-GGA-X  ScalDFX         ....  0.000000
   Scaling of DF-GGA-C  ScalDFC         ....  1.000000
   Scaling of DF-LDA-C  ScalLDAC        ....  1.000000
   Perturbative correction              ....  0.000000
   Density functional embedding theory  .... OFF
 Long-range corrected/Screened/Range-Separated Hybrid DFT is turned on
   Amount of maximum screened exact exchange              ....  0.842294
   Range separation parameter mu (erf(mu*r12)/r12)        ....  0.300000
 RI-approximation to the Coulomb term is turned on
   Number of AuxJ basis functions       .... 750
   RIJ-COSX (HFX calculated with COS-X)).... on


General Settings:
 Integral files         IntName         .... C6H6--12C6H12_0_1_wb97x_xtb_6-31gpol_RC-1-layer.tddft
 Hartree-Fock type      HFTyp           .... RHF
 Total Charge           Charge          ....    0
 Multiplicity           Mult            ....    1
 Number of Electrons    NEL             ....   42
 Basis Dimension        Dim             ....   96
 Nuclear Repulsion      ENuc            ....    203.2485061671 Eh

Convergence Acceleration:
 DIIS                   CNVDIIS         .... on
   Start iteration      DIISMaxIt       ....    12
   Startup error        DIISStart       ....  0.200000
   # of expansion vecs  DIISMaxEq       ....     5
   Bias factor          DIISBfac        ....   1.050
   Max. coefficient     DIISMaxC        ....  10.000
 Trust-Rad. Augm. Hess. CNVTRAH         .... auto
   Auto Start mean grad. ratio tolernc. ....  1.125000
   Auto Start start iteration           ....    20
   Auto Start num. interpolation iter.  ....    10
   Max. Number of Micro iterations      ....    16
   Max. Number of Macro iterations      .... Maxiter - #DIIS iter
   Number of Davidson start vectors     ....     2
   Converg. threshold I  (grad. norm)   ....   1.000e-05
   Converg. threshold II (energy diff.) ....   1.000e-08
   Grad. Scal. Fac. for Micro threshold ....   0.100
   Minimum threshold for Micro iter.    ....   0.010
   NR start threshold (gradient norm)   ....   0.001
   Initial trust radius                 ....   0.400
   Minimum AH scaling param. (alpha)    ....   1.000
   Maximum AH scaling param. (alpha)    .... 1000.000
   Orbital update algorithm             .... Taylor
   White noise on init. David. guess    .... on
   Maximum white noise                  ....   0.010
   Quad. conv. algorithm                .... NR
 SOSCF                  CNVSOSCF        .... on
   Start iteration      SOSCFMaxIt      ....   150
   Startup grad/error   SOSCFStart      ....  0.003300
 Level Shifting         CNVShift        .... on
   Level shift para.    LevelShift      ....    0.2500
   Turn off err/grad.   ShiftErr        ....    0.0010
 Zerner damping         CNVZerner       .... off
 Static damping         CNVDamp         .... on
   Fraction old density DampFac         ....    0.7000
   Max. Damping (<1)    DampMax         ....    0.9800
   Min. Damping (>=0)   DampMin         ....    0.0000
   Turn off err/grad.   DampErr         ....    0.1000
 Fernandez-Rico         CNVRico         .... off

SCF Procedure:
 Maximum # iterations   MaxIter         ....   500
 SCF integral mode      SCFMode         .... Direct
   Integral package                     .... SHARK and LIBINT hybrid scheme
 Reset frequency        DirectResetFreq ....    20
 Integral Threshold     Thresh          ....  2.500e-11 Eh
 Primitive CutOff       TCut            ....  2.500e-12 Eh

Convergence Tolerance:
 Convergence Check Mode ConvCheckMode   .... Total+1el-Energy
 Convergence forced     ConvForced      .... 1
 Energy Change          TolE            ....  1.000e-08 Eh
 1-El. energy change                    ....  1.000e-05 Eh
 Orbital Gradient       TolG            ....  1.000e-05
 Orbital Rotation angle TolX            ....  1.000e-05
 DIIS Error             TolErr          ....  5.000e-07


Diagonalization of the overlap matrix:
Smallest eigenvalue                        ... 5.312e-04
Time for diagonalization                   ...    0.020 sec
Threshold for overlap eigenvalues          ... 1.000e-08
Number of eigenvalues below threshold      ... 0
Time for construction of square roots      ...    0.009 sec
Total time needed                          ...    0.030 sec

SHARK General Contraction Test:  Segmented basis detected
   -> Pre-screening matrix found on disk - Trying to read with NShells=48
   -> Passing Pre-screening matrix on to SHARK ...ok
   -> Leaving CheckPreScreeningMatrix
----------------------
SHARK INTEGRAL PACKAGE
----------------------

Number of atoms                             ...     12
Number of basis functions                   ...     96
Number of shells                            ...     48
Maximum angular momentum                    ...      2
Integral batch strategy                     ... SHARK/LIBINT Hybrid
RI-J (if used) integral strategy            ... SPLIT-RIJ (Revised 2003 algorithm where possible)
Printlevel                                  ...      2
Contraction scheme used                     ... SEGMENTED contraction
Coulomb Range Separation                    ... NOT USED
Exchange Range Separation                   ... Long Range
   Mu parameter                             ...  0.300000
   Scaling (regular/separated)              ...  0.157706  0.842294
Finite Nucleus Model                        ... NOT USED
Auxiliary Coulomb fitting basis             ... AVAILABLE
   # of basis functions in Aux-J            ...    750
   # of shells in Aux-J                     ...    282
   Maximum angular momentum in Aux-J        ...      3
Auxiliary J/K fitting basis                 ... AVAILABLE
   # of basis functions in Aux-JK           ...    750
   # of shells in Aux-JK                    ...    282
   Maximum angular momentum in Aux-JK       ...      3
Auxiliary Correlation fitting basis         ... AVAILABLE
   # of basis functions in Aux-C            ...    750
   # of shells in Aux-C                     ...    282
   Maximum angular momentum in Aux-C        ...      3
Auxiliary 'external' fitting basis          ... NOT available
Integral threshold                          ...     2.500000e-11
Primitive cut-off                           ...     2.500000e-12
Primitive pair pre-selection threshold      ...     2.500000e-12

Time for model grid setup =    0.074 sec

------------------------------
INITIAL GUESS: MODEL POTENTIAL
------------------------------
Loading Hartree-Fock densities                     ... done
Calculating cut-offs                               ... done
Initializing the effective Hamiltonian             ... done
Setting up the integral package (SHARK)            ... done
Starting the Coulomb interaction                   ...     -> Generating integrals - 
    -> L=0 0 :     0.005 sec done=     42060 skipped=       408 prim-skipped=         0
    -> L=1 0 :     0.003 sec done=     34560 skipped=         0 prim-skipped=         0
    -> L=1 1 :     0.001 sec done=      7488 skipped=         0 prim-skipped=         0
    -> L=2 0 :     0.001 sec done=     17280 skipped=         0 prim-skipped=         0
    -> L=2 1 :     0.001 sec done=      6912 skipped=         0 prim-skipped=         0
    -> L=2 2 :     0.002 sec done=      2016 skipped=         0 prim-skipped=         0
done (   0.0 sec)
Reading the grid                                   ... done
Mapping shells                                     ... done
Starting the XC term evaluation                    ... done (   0.0 sec)
  promolecular density results
     # of electrons  =     41.994857169
     EX              =    -32.415128969
     EC              =     -1.367106556
     EX+EC           =    -33.782235525
Transforming the Hamiltonian                       ... done (   0.0 sec)
Diagonalizing the Hamiltonian                      ... done (   0.0 sec)
Back transforming the eigenvectors                 ... done (   0.0 sec)
Now organizing SCF variables                       ... done
                      ------------------
                      INITIAL GUESS DONE (   0.2 sec)
                      ------------------
-------------------
DFT GRID GENERATION
-------------------

General Integration Accuracy     IntAcc      ... 4.388
Radial Grid Type                 RadialGrid  ... OptM3 with GC (2021)
Angular Grid (max. ang.)         AngularGrid ... 4 (Lebedev-302)
Angular grid pruning method      GridPruning ... 4 (adaptive)
Weight generation scheme         WeightScheme... Becke
Basis function cutoff            BFCut       ... 1.0000e-11
Integration weight cutoff        WCut        ... 1.0000e-14
Angular grids for H and He will be reduced by one unit
Partially contracted basis set               ... off
Rotationally invariant grid construction     ... off

Total number of grid points                  ...    55630
Total number of batches                      ...      874
Average number of points per batch           ...       63
Average number of grid points per atom       ...     4636
Time for grid setup =    0.309 sec

--------------------
COSX GRID GENERATION
--------------------

GRIDX 1
-------
General Integration Accuracy     IntAcc      ... 3.816
Radial Grid Type                 RadialGrid  ... OptM3 with GC (2021)
Angular Grid (max. ang.)         AngularGrid ... 1 (Lebedev-50)
Angular grid pruning method      GridPruning ... 4 (adaptive)
Weight generation scheme         WeightScheme... Becke
Basis function cutoff            BFCut       ... 1.0000e-11
Integration weight cutoff        WCut        ... 1.0000e-14
Angular grids for H and He will be reduced by one unit
Partially contracted basis set               ... on
Rotationally invariant grid construction     ... off

Total number of grid points                  ...     7136
Total number of batches                      ...      114
Average number of points per batch           ...       62
Average number of grid points per atom       ...      595
UseSFitting                                  ... on

GRIDX 2
-------
General Integration Accuracy     IntAcc      ... 4.020
Radial Grid Type                 RadialGrid  ... OptM3 with GC (2021)
Angular Grid (max. ang.)         AngularGrid ... 2 (Lebedev-110)
Angular grid pruning method      GridPruning ... 4 (adaptive)
Weight generation scheme         WeightScheme... Becke
Basis function cutoff            BFCut       ... 1.0000e-11
Integration weight cutoff        WCut        ... 1.0000e-14
Angular grids for H and He will be reduced by one unit
Partially contracted basis set               ... on
Rotationally invariant grid construction     ... off

Total number of grid points                  ...    15570
Total number of batches                      ...      248
Average number of points per batch           ...       62
Average number of grid points per atom       ...     1298
UseSFitting                                  ... on

GRIDX 3
-------
General Integration Accuracy     IntAcc      ... 4.338
Radial Grid Type                 RadialGrid  ... OptM3 with GC (2021)
Angular Grid (max. ang.)         AngularGrid ... 3 (Lebedev-194)
Angular grid pruning method      GridPruning ... 4 (adaptive)
Weight generation scheme         WeightScheme... Becke
Basis function cutoff            BFCut       ... 1.0000e-11
Integration weight cutoff        WCut        ... 1.0000e-14
Angular grids for H and He will be reduced by one unit
Partially contracted basis set               ... on
Rotationally invariant grid construction     ... off

Total number of grid points                  ...    34160
Total number of batches                      ...      540
Average number of points per batch           ...       63
Average number of grid points per atom       ...     2847
UseSFitting                                  ... on

Time for X-Grid setup             =    0.282 sec

--------------
SCF ITERATIONS
--------------
               ***  Starting incremental Fock matrix formation  ***
==>> SHARK/AuxDens: NDens=1 Thresh =     2.500000e-11 TCut=    2.500000e-12 Lmax=2 LmaxAux=3
    -> Making Hermite density - ok     0.003 sec
    -> Making Aux-basis density - (lmax=2)
    -> L=0 0:    0.008 sec done=    120990 ( 96.0%) skipped=      5064 
    -> L=1 0:    0.007 sec done=    101520 (100.0%) skipped=         0 
    -> L=1 1:    0.004 sec done=     21996 (100.0%) skipped=         0 
    -> L=2 0:    0.005 sec done=     49836 ( 98.2%) skipped=       924 
    -> L=2 1:    0.009 sec done=     20304 (100.0%) skipped=         0 
    -> L=2 2:    0.003 sec done=      5922 (100.0%) skipped=         0 
    -> Aux basis density formed in    0.0 sec
    -> Solving linear equations - ok (   0.0 sec)
        Auxbasis Hermite Density:
        P|s>                     ...  0.000
        P|p>                     ...  0.000
        P|d>                     ...  0.000
        P|f>                     ...  0.000
        Building the Coulomb matrix: 
        J|ss>                          ... done (  0.0 sec) ndone=   613822 nskipped1=    17620 nskipped2=    16876
        J|ps>                          ... done (  0.0 sec) ndone=   439488 nskipped1=        0 nskipped2=     8892
        J|pp>                          ... done (  0.0 sec) ndone=    80706 nskipped1=        0 nskipped2=     1356
        J|ds>                          ... done (  0.0 sec) ndone=   132058 nskipped1=       74 nskipped2=     3228
        J|dp>                          ... done (  0.0 sec) ndone=    40608 nskipped1=        0 nskipped2=        0
        J|dd>                          ... done (  0.0 sec) ndone=     5922 nskipped1=        0 nskipped2=        0
        Coulomb matrix built in   0.0 sec

        Total time for Split-RI-J                ...    0.085 sec
          (0) Prelude                            ...    0.000 sec
          (1) Hermite density                    ...    0.000 sec
          (2) Aux basis density                  ...    0.000 sec (inner=  0.0)
          (3) Linear equation solution           ...    0.000 sec
          (4) J-Matrix construction              ...    0.026 sec (inner=  0.0)
        ---------------------------------------------------------

                         ----------------------------
                         !        ITERATION     0   !
                         ----------------------------
   Total Energy        :    -232.042240588294 Eh
   Energy Change       :    -232.042240588294 Eh
   MAX-DP              :       0.032943571476
   RMS-DP              :       0.002223157211
   Actual Damping      :       0.7000
   Actual Level Shift  :       0.2500 Eh
   Int. Num. El.       :    42.00001568 (UP=   21.00000784 DN=   21.00000784)
   Exch.+Correl.(+NL)  :   -24.33950097

==>> SHARK/AuxDens: NDens=1 Thresh =     2.500000e-11 TCut=    2.500000e-12 Lmax=2 LmaxAux=3
    -> Making Hermite density - ok     0.002 sec
    -> Making Aux-basis density - (lmax=2)
    -> L=0 0:    0.006 sec done=    119796 ( 95.0%) skipped=      6258 
    -> L=1 0:    0.006 sec done=    100134 ( 98.6%) skipped=      1386 
    -> L=1 1:    0.002 sec done=     21996 (100.0%) skipped=         0 
    -> L=2 0:    0.002 sec done=     46610 ( 91.8%) skipped=      4150 
    -> L=2 1:    0.001 sec done=     20304 (100.0%) skipped=         0 
    -> L=2 2:    0.000 sec done=      5922 (100.0%) skipped=         0 
    -> Aux basis density formed in    0.0 sec
    -> Solving linear equations - ok (   0.0 sec)
        Auxbasis Hermite Density:
        P|s>                     ...  0.000
        P|p>                     ...  0.000
        P|d>                     ...  0.000
        P|f>                     ...  0.000
        Building the Coulomb matrix: 
        J|ss>                          ... done (  0.0 sec) ndone=   611880 nskipped1=    22518 nskipped2=    13920
        J|ps>                          ... done (  0.0 sec) ndone=   439352 nskipped1=      156 nskipped2=     8872
        J|pp>                          ... done (  0.0 sec) ndone=    80706 nskipped1=        0 nskipped2=     1356
        J|ds>                          ... done (  0.0 sec) ndone=   131138 nskipped1=     1122 nskipped2=     3100
        J|dp>                          ... done (  0.0 sec) ndone=    40608 nskipped1=        0 nskipped2=        0
        J|dd>                          ... done (  0.0 sec) ndone=     5922 nskipped1=        0 nskipped2=        0
        Coulomb matrix built in   0.0 sec

        Total time for Split-RI-J                ...    0.058 sec
          (0) Prelude                            ...    0.000 sec
          (1) Hermite density                    ...    0.000 sec
          (2) Aux basis density                  ...    0.000 sec (inner=  0.0)
          (3) Linear equation solution           ...    0.000 sec
          (4) J-Matrix construction              ...    0.014 sec (inner=  0.0)
        ---------------------------------------------------------

                         ----------------------------
                         !        ITERATION     1   !
                         ----------------------------
   Total Energy        :    -232.094336178227 Eh
   Energy Change       :      -0.052095589933 Eh
   MAX-DP              :       0.024493542053
   RMS-DP              :       0.001725087255
   Actual Damping      :       0.7000
   Actual Level Shift  :       0.2500 Eh
   Int. Num. El.       :    42.00001558 (UP=   21.00000779 DN=   21.00000779)
   Exch.+Correl.(+NL)  :   -24.20577696

==>> SHARK/AuxDens: NDens=1 Thresh =     2.500000e-11 TCut=    2.500000e-12 Lmax=2 LmaxAux=3
    -> Making Hermite density - ok     0.002 sec
    -> Making Aux-basis density - (lmax=2)
    -> L=0 0:    0.006 sec done=    119750 ( 95.0%) skipped=      6304 
    -> L=1 0:    0.006 sec done=     99834 ( 98.3%) skipped=      1686 
    -> L=1 1:    0.002 sec done=     21996 (100.0%) skipped=         0 
    -> L=2 0:    0.002 sec done=     46650 ( 91.9%) skipped=      4110 
    -> L=2 1:    0.001 sec done=     20304 (100.0%) skipped=         0 
    -> L=2 2:    0.000 sec done=      5922 (100.0%) skipped=         0 
    -> Aux basis density formed in    0.0 sec
    -> Solving linear equations - ok (   0.0 sec)
        Auxbasis Hermite Density:
        P|s>                     ...  0.000
        P|p>                     ...  0.000
        P|d>                     ...  0.000
        P|f>                     ...  0.000
        Building the Coulomb matrix: 
        J|ss>                          ... done (  0.0 sec) ndone=   611338 nskipped1=    23148 nskipped2=    13832
        J|ps>                          ... done (  0.0 sec) ndone=   439302 nskipped1=      222 nskipped2=     8856
        J|pp>                          ... done (  0.0 sec) ndone=    80706 nskipped1=        0 nskipped2=     1356
        J|ds>                          ... done (  0.0 sec) ndone=   130732 nskipped1=     1604 nskipped2=     3024
        J|dp>                          ... done (  0.0 sec) ndone=    40608 nskipped1=        0 nskipped2=        0
        J|dd>                          ... done (  0.0 sec) ndone=     5922 nskipped1=        0 nskipped2=        0
        Coulomb matrix built in   0.0 sec

        Total time for Split-RI-J                ...    0.066 sec
          (0) Prelude                            ...    0.000 sec
          (1) Hermite density                    ...    0.000 sec
          (2) Aux basis density                  ...    0.000 sec (inner=  0.0)
          (3) Linear equation solution           ...    0.000 sec
          (4) J-Matrix construction              ...    0.019 sec (inner=  0.0)
        ---------------------------------------------------------
                               ***Turning on DIIS***

                         ----------------------------
                         !        ITERATION     2   !
                         ----------------------------
   Total Energy        :    -232.123179886192 Eh
   Energy Change       :      -0.028843707965 Eh
   MAX-DP              :       0.047489325165
   RMS-DP              :       0.003541534124
   Actual Damping      :       0.0000
   Actual Level Shift  :       0.2500 Eh
   Int. Num. El.       :    42.00001543 (UP=   21.00000771 DN=   21.00000771)
   Exch.+Correl.(+NL)  :   -24.10473616
   DIIS-Error          :       0.039958127739

==>> SHARK/AuxDens: NDens=1 Thresh =     2.500000e-11 TCut=    2.500000e-12 Lmax=2 LmaxAux=3
    -> Making Hermite density - ok     0.002 sec
    -> Making Aux-basis density - (lmax=2)
    -> L=0 0:    0.006 sec done=    120394 ( 95.5%) skipped=      5660 
    -> L=1 0:    0.006 sec done=    100966 ( 99.5%) skipped=       554 
    -> L=1 1:    0.002 sec done=     21996 (100.0%) skipped=         0 
    -> L=2 0:    0.002 sec done=     47632 ( 93.8%) skipped=      3128 
    -> L=2 1:    0.001 sec done=     20304 (100.0%) skipped=         0 
    -> L=2 2:    0.000 sec done=      5922 (100.0%) skipped=         0 
    -> Aux basis density formed in    0.0 sec
    -> Solving linear equations - ok (   0.0 sec)
        Auxbasis Hermite Density:
        P|s>                     ...  0.000
        P|p>                     ...  0.000
        P|d>                     ...  0.000
        P|f>                     ...  0.000
        Building the Coulomb matrix: 
        J|ss>                          ... done (  0.0 sec) ndone=   611952 nskipped1=    22512 nskipped2=    13854
        J|ps>                          ... done (  0.0 sec) ndone=   439334 nskipped1=      198 nskipped2=     8848
        J|pp>                          ... done (  0.0 sec) ndone=    80706 nskipped1=        0 nskipped2=     1356
        J|ds>                          ... done (  0.0 sec) ndone=   131160 nskipped1=     1136 nskipped2=     3064
        J|dp>                          ... done (  0.0 sec) ndone=    40608 nskipped1=        0 nskipped2=        0
        J|dd>                          ... done (  0.0 sec) ndone=     5922 nskipped1=        0 nskipped2=        0
        Coulomb matrix built in   0.0 sec

        Total time for Split-RI-J                ...    0.065 sec
          (0) Prelude                            ...    0.000 sec
          (1) Hermite density                    ...    0.000 sec
          (2) Aux basis density                  ...    0.000 sec (inner=  0.0)
          (3) Linear equation solution           ...    0.000 sec
          (4) J-Matrix construction              ...    0.015 sec (inner=  0.0)
        ---------------------------------------------------------

                         ----------------------------
                         !        ITERATION     3   !
                         ----------------------------
   Total Energy        :    -232.171441072270 Eh
   Energy Change       :      -0.048261186078 Eh
   MAX-DP              :       0.014317144628
   RMS-DP              :       0.000953185120
   Actual Damping      :       0.0000
   Actual Level Shift  :       0.2500 Eh
   Int. Num. El.       :    42.00001510 (UP=   21.00000755 DN=   21.00000755)
   Exch.+Correl.(+NL)  :   -23.90942899
   DIIS-Error          :       0.029635539828
   DIIS coefficients:
      0.39059   0.60941

==>> SHARK/AuxDens: NDens=1 Thresh =     2.500000e-11 TCut=    2.500000e-12 Lmax=2 LmaxAux=3
    -> Making Hermite density - ok     0.003 sec
    -> Making Aux-basis density - (lmax=2)
    -> L=0 0:    0.007 sec done=    118632 ( 94.1%) skipped=      7422 
    -> L=1 0:    0.006 sec done=    100936 ( 99.4%) skipped=       584 
    -> L=1 1:    0.002 sec done=     21996 (100.0%) skipped=         0 
    -> L=2 0:    0.002 sec done=     47412 ( 93.4%) skipped=      3348 
    -> L=2 1:    0.001 sec done=     20304 (100.0%) skipped=         0 
    -> L=2 2:    0.000 sec done=      5922 (100.0%) skipped=         0 
    -> Aux basis density formed in    0.0 sec
    -> Solving linear equations - ok (   0.0 sec)
        Auxbasis Hermite Density:
        P|s>                     ...  0.000
        P|p>                     ...  0.000
        P|d>                     ...  0.000
        P|f>                     ...  0.000
        Building the Coulomb matrix: 
        J|ss>                          ... done (  0.0 sec) ndone=   611688 nskipped1=    22698 nskipped2=    13932
        J|ps>                          ... done (  0.0 sec) ndone=   439230 nskipped1=      270 nskipped2=     8880
        J|pp>                          ... done (  0.0 sec) ndone=    80706 nskipped1=        0 nskipped2=     1356
        J|ds>                          ... done (  0.0 sec) ndone=   130738 nskipped1=     1604 nskipped2=     3018
        J|dp>                          ... done (  0.0 sec) ndone=    40608 nskipped1=        0 nskipped2=        0
        J|dd>                          ... done (  0.0 sec) ndone=     5922 nskipped1=        0 nskipped2=        0
        Coulomb matrix built in   0.0 sec

        Total time for Split-RI-J                ...    0.057 sec
          (0) Prelude                            ...    0.000 sec
          (1) Hermite density                    ...    0.000 sec
          (2) Aux basis density                  ...    0.000 sec (inner=  0.0)
          (3) Linear equation solution           ...    0.000 sec
          (4) J-Matrix construction              ...    0.014 sec (inner=  0.0)
        ---------------------------------------------------------

                         ----------------------------
                         !        ITERATION     4   !
                         ----------------------------
   Total Energy        :    -232.177117814863 Eh
   Energy Change       :      -0.005676742593 Eh
   MAX-DP              :       0.002689943183
   RMS-DP              :       0.000219393690
   Actual Damping      :       0.0000
   Actual Level Shift  :       0.2500 Eh
   Int. Num. El.       :    42.00001512 (UP=   21.00000756 DN=   21.00000756)
   Exch.+Correl.(+NL)  :   -23.96066558
   DIIS-Error          :       0.004769508647
   DIIS coefficients:
      0.04997  -0.04981   0.99984

==>> SHARK/AuxDens: NDens=1 Thresh =     2.500000e-11 TCut=    2.500000e-12 Lmax=2 LmaxAux=3
    -> Making Hermite density - ok     0.002 sec
    -> Making Aux-basis density - (lmax=2)
    -> L=0 0:    0.007 sec done=    118012 ( 93.6%) skipped=      8042 
    -> L=1 0:    0.006 sec done=    100056 ( 98.6%) skipped=      1464 
    -> L=1 1:    0.002 sec done=     21996 (100.0%) skipped=         0 
    -> L=2 0:    0.002 sec done=     45480 ( 89.6%) skipped=      5280 
    -> L=2 1:    0.001 sec done=     20304 (100.0%) skipped=         0 
    -> L=2 2:    0.000 sec done=      5922 (100.0%) skipped=         0 
    -> Aux basis density formed in    0.0 sec
    -> Solving linear equations - ok (   0.0 sec)
        Auxbasis Hermite Density:
        P|s>                     ...  0.000
        P|p>                     ...  0.000
        P|d>                     ...  0.000
        P|f>                     ...  0.000
        Building the Coulomb matrix: 
        J|ss>                          ... done (  0.0 sec) ndone=   603166 nskipped1=    32102 nskipped2=    13050
        J|ps>                          ... done (  0.0 sec) ndone=   435436 nskipped1=     4136 nskipped2=     8808
        J|pp>                          ... done (  0.0 sec) ndone=    80706 nskipped1=        0 nskipped2=     1356
        J|ds>                          ... done (  0.0 sec) ndone=   124820 nskipped1=     8804 nskipped2=     1736
        J|dp>                          ... done (  0.0 sec) ndone=    40608 nskipped1=        0 nskipped2=        0
        J|dd>                          ... done (  0.0 sec) ndone=     5922 nskipped1=        0 nskipped2=        0
        Coulomb matrix built in   0.0 sec

        Total time for Split-RI-J                ...    0.055 sec
          (0) Prelude                            ...    0.000 sec
          (1) Hermite density                    ...    0.000 sec
          (2) Aux basis density                  ...    0.000 sec (inner=  0.0)
          (3) Linear equation solution           ...    0.000 sec
          (4) J-Matrix construction              ...    0.014 sec (inner=  0.0)
        ---------------------------------------------------------
                      *** Initiating the SOSCF procedure ***
                           *** Shutting down DIIS ***
                      *** Re-Reading the Fockian *** 
                      *** Removing any level shift *** 

                         ----------------------------
                         !        ITERATION     5   !
                         ----------------------------
   Total Energy        :    -232.177283455296 Eh
   Energy Change       :      -0.000165640433 Eh
   MAX-DP              :       0.000735824645
   RMS-DP              :       0.000085770305
   Orbital gradient    :       0.000627026000
   Orbital Rotation    :       0.000627026000
   Actual Damping      :       0.0000
   Int. Num. El.       :    42.00001502 (UP=   21.00000751 DN=   21.00000751)
   Exch.+Correl.(+NL)  :   -23.97025529

               *** Restarting incremental Fock matrix formation ***
==>> SHARK/AuxDens: NDens=1 Thresh =     2.500000e-11 TCut=    2.500000e-12 Lmax=2 LmaxAux=3
    -> Making Hermite density - ok     0.002 sec
    -> Making Aux-basis density - (lmax=2)
    -> L=0 0:    0.007 sec done=    120978 ( 96.0%) skipped=      5076 
    -> L=1 0:    0.006 sec done=    101520 (100.0%) skipped=         0 
    -> L=1 1:    0.002 sec done=     21996 (100.0%) skipped=         0 
    -> L=2 0:    0.003 sec done=     49552 ( 97.6%) skipped=      1208 
    -> L=2 1:    0.001 sec done=     20304 (100.0%) skipped=         0 
    -> L=2 2:    0.000 sec done=      5922 (100.0%) skipped=         0 
    -> Aux basis density formed in    0.0 sec
    -> Solving linear equations - ok (   0.0 sec)
        Auxbasis Hermite Density:
        P|s>                     ...  0.000
        P|p>                     ...  0.000
        P|d>                     ...  0.000
        P|f>                     ...  0.000
        Building the Coulomb matrix: 
        J|ss>                          ... done (  0.0 sec) ndone=   613712 nskipped1=    17914 nskipped2=    16692
        J|ps>                          ... done (  0.0 sec) ndone=   439476 nskipped1=       12 nskipped2=     8892
        J|pp>                          ... done (  0.0 sec) ndone=    80706 nskipped1=        0 nskipped2=     1356
        J|ds>                          ... done (  0.0 sec) ndone=   131988 nskipped1=      168 nskipped2=     3204
        J|dp>                          ... done (  0.0 sec) ndone=    40608 nskipped1=        0 nskipped2=        0
        J|dd>                          ... done (  0.0 sec) ndone=     5922 nskipped1=        0 nskipped2=        0
        Coulomb matrix built in   0.0 sec

        Total time for Split-RI-J                ...    0.056 sec
          (0) Prelude                            ...    0.000 sec
          (1) Hermite density                    ...    0.000 sec
          (2) Aux basis density                  ...    0.000 sec (inner=  0.0)
          (3) Linear equation solution           ...    0.000 sec
          (4) J-Matrix construction              ...    0.014 sec (inner=  0.0)
        ---------------------------------------------------------

                         ----------------------------
                         !        ITERATION     6   !
                         ----------------------------
   Total Energy        :    -232.177275129898 Eh
   Energy Change       :       0.000008325398 Eh
   MAX-DP              :       0.000190615278
   RMS-DP              :       0.000015798558
   Orbital gradient    :       0.000119029094
   Orbital Rotation    :       0.000145523981
   Actual Damping      :       0.0000
   Int. Num. El.       :    42.00001498 (UP=   21.00000749 DN=   21.00000749)
   Exch.+Correl.(+NL)  :   -23.97126991

==>> SHARK/AuxDens: NDens=1 Thresh =     2.500000e-11 TCut=    2.500000e-12 Lmax=2 LmaxAux=3
    -> Making Hermite density - ok     0.002 sec
    -> Making Aux-basis density - (lmax=2)
    -> L=0 0:    0.006 sec done=    109345 ( 86.7%) skipped=     16709 
    -> L=1 0:    0.006 sec done=     97980 ( 96.5%) skipped=      3540 
    -> L=1 1:    0.002 sec done=     21996 (100.0%) skipped=         0 
    -> L=2 0:    0.002 sec done=     40650 ( 80.1%) skipped=     10110 
    -> L=2 1:    0.001 sec done=     20304 (100.0%) skipped=         0 
    -> L=2 2:    0.000 sec done=      5922 (100.0%) skipped=         0 
    -> Aux basis density formed in    0.0 sec
    -> Solving linear equations - ok (   0.0 sec)
        Auxbasis Hermite Density:
        P|s>                     ...  0.000
        P|p>                     ...  0.000
        P|d>                     ...  0.000
        P|f>                     ...  0.000
        Building the Coulomb matrix: 
        J|ss>                          ... done (  0.0 sec) ndone=   578748 nskipped1=    60152 nskipped2=     9418
        J|ps>                          ... done (  0.0 sec) ndone=   425296 nskipped1=    14796 nskipped2=     8288
        J|pp>                          ... done (  0.0 sec) ndone=    80706 nskipped1=        0 nskipped2=     1356
        J|ds>                          ... done (  0.0 sec) ndone=   115660 nskipped1=    19178 nskipped2=      522
        J|dp>                          ... done (  0.0 sec) ndone=    40608 nskipped1=        0 nskipped2=        0
        J|dd>                          ... done (  0.0 sec) ndone=     5922 nskipped1=        0 nskipped2=        0
        Coulomb matrix built in   0.0 sec

        Total time for Split-RI-J                ...    0.053 sec
          (0) Prelude                            ...    0.000 sec
          (1) Hermite density                    ...    0.000 sec
          (2) Aux basis density                  ...    0.000 sec (inner=  0.0)
          (3) Linear equation solution           ...    0.000 sec
          (4) J-Matrix construction              ...    0.014 sec (inner=  0.0)
        ---------------------------------------------------------

                         ----------------------------
                         !        ITERATION     7   !
                         ----------------------------
   Total Energy        :    -232.177275272557 Eh
   Energy Change       :      -0.000000142660 Eh
   MAX-DP              :       0.000070841594
   RMS-DP              :       0.000006628763
   Orbital gradient    :       0.000041707586
   Orbital Rotation    :       0.000054045851
   Actual Damping      :       0.0000
   Int. Num. El.       :    42.00001497 (UP=   21.00000748 DN=   21.00000748)
   Exch.+Correl.(+NL)  :   -23.97108873

==>> SHARK/AuxDens: NDens=1 Thresh =     2.500000e-11 TCut=    2.500000e-12 Lmax=2 LmaxAux=3
    -> Making Hermite density - ok     0.002 sec
    -> Making Aux-basis density - (lmax=2)
    -> L=0 0:    0.006 sec done=    105278 ( 83.5%) skipped=     20776 
    -> L=1 0:    0.006 sec done=     96063 ( 94.6%) skipped=      5457 
    -> L=1 1:    0.002 sec done=     21996 (100.0%) skipped=         0 
    -> L=2 0:    0.002 sec done=     40350 ( 79.5%) skipped=     10410 
    -> L=2 1:    0.001 sec done=     20304 (100.0%) skipped=         0 
    -> L=2 2:    0.000 sec done=      5760 ( 97.3%) skipped=       162 
    -> Aux basis density formed in    0.0 sec
    -> Solving linear equations - ok (   0.0 sec)
        Auxbasis Hermite Density:
        P|s>                     ...  0.000
        P|p>                     ...  0.000
        P|d>                     ...  0.000
        P|f>                     ...  0.000
        Building the Coulomb matrix: 
        J|ss>                          ... done (  0.0 sec) ndone=   565266 nskipped1=    74754 nskipped2=     8298
        J|ps>                          ... done (  0.0 sec) ndone=   419344 nskipped1=    20766 nskipped2=     8270
        J|pp>                          ... done (  0.0 sec) ndone=    80694 nskipped1=       12 nskipped2=     1356
        J|ds>                          ... done (  0.0 sec) ndone=   110768 nskipped1=    24204 nskipped2=      388
        J|dp>                          ... done (  0.0 sec) ndone=    40584 nskipped1=       24 nskipped2=        0
        J|dd>                          ... done (  0.0 sec) ndone=     5916 nskipped1=        6 nskipped2=        0
        Coulomb matrix built in   0.0 sec

        Total time for Split-RI-J                ...    0.053 sec
          (0) Prelude                            ...    0.000 sec
          (1) Hermite density                    ...    0.000 sec
          (2) Aux basis density                  ...    0.000 sec (inner=  0.0)
          (3) Linear equation solution           ...    0.000 sec
          (4) J-Matrix construction              ...    0.014 sec (inner=  0.0)
        ---------------------------------------------------------

                         ----------------------------
                         !        ITERATION     8   !
                         ----------------------------
   Total Energy        :    -232.177275285457 Eh
   Energy Change       :      -0.000000012900 Eh
   MAX-DP              :       0.000016455346
   RMS-DP              :       0.000001652942
   Orbital gradient    :       0.000008728616
   Orbital Rotation    :       0.000009278309
   Actual Damping      :       0.0000
   Int. Num. El.       :    42.00001497 (UP=   21.00000748 DN=   21.00000748)
   Exch.+Correl.(+NL)  :   -23.97118208

==>> SHARK/AuxDens: NDens=1 Thresh =     2.500000e-11 TCut=    2.500000e-12 Lmax=2 LmaxAux=3
    -> Making Hermite density - ok     0.003 sec
    -> Making Aux-basis density - (lmax=2)
    -> L=0 0:    0.005 sec done=    102727 ( 81.5%) skipped=     23327 
    -> L=1 0:    0.006 sec done=     92227 ( 90.8%) skipped=      9293 
    -> L=1 1:    0.002 sec done=     21996 (100.0%) skipped=         0 
    -> L=2 0:    0.002 sec done=     40020 ( 78.8%) skipped=     10740 
    -> L=2 1:    0.001 sec done=     20304 (100.0%) skipped=         0 
    -> L=2 2:    0.000 sec done=      5405 ( 91.3%) skipped=       517 
    -> Aux basis density formed in    0.0 sec
    -> Solving linear equations - ok (   0.0 sec)
        Auxbasis Hermite Density:
        P|s>                     ...  0.000
        P|p>                     ...  0.000
        P|d>                     ...  0.000
        P|f>                     ...  0.000
        Building the Coulomb matrix: 
        J|ss>                          ... done (  0.0 sec) ndone=   539778 nskipped1=   101282 nskipped2=     7258
        J|ps>                          ... done (  0.0 sec) ndone=   408348 nskipped1=    31960 nskipped2=     8072
        J|pp>                          ... done (  0.0 sec) ndone=    80667 nskipped1=       42 nskipped2=     1353
        J|ds>                          ... done (  0.0 sec) ndone=   104130 nskipped1=    31000 nskipped2=      230
        J|dp>                          ... done (  0.0 sec) ndone=    40560 nskipped1=       48 nskipped2=        0
        J|dd>                          ... done (  0.0 sec) ndone=     5908 nskipped1=       14 nskipped2=        0
        Coulomb matrix built in   0.0 sec

        Total time for Split-RI-J                ...    0.055 sec
          (0) Prelude                            ...    0.000 sec
          (1) Hermite density                    ...    0.000 sec
          (2) Aux basis density                  ...    0.000 sec (inner=  0.0)
          (3) Linear equation solution           ...    0.000 sec
          (4) J-Matrix construction              ...    0.013 sec (inner=  0.0)
        ---------------------------------------------------------
                  ***Gradient check signals convergence***
              ***Rediagonalizing the Fockian in SOSCF/NRSCF***

               *****************************************************
               *                     SUCCESS                       *
               *           SCF CONVERGED AFTER   9 CYCLES          *
               *****************************************************

Old exchange energy                            =    -10.746619621 Eh
New exchange energy                            =    -10.746640004 Eh
Exchange energy change after final integration =     -0.000020382 Eh
Total energy after final integration           =   -232.177295670 Eh
Final COS-X integration done in                =     1.354 sec

----------------
TOTAL SCF ENERGY
----------------

Total Energy       :         -232.17729567 Eh           -6317.86541 eV

Components:
Nuclear Repulsion  :          203.24850617 Eh            5530.67303 eV
Electronic Energy  :         -435.42580184 Eh          -11848.53844 eV
One Electron Energy:         -713.78921736 Eh          -19423.19206 eV
Two Electron Energy:          278.36341553 Eh            7574.65362 eV
Max COSX asymmetry :            0.00000067 Eh               0.00002 eV

Virial components:
Potential Energy   :         -462.68338752 Eh          -12590.25505 eV
Kinetic Energy     :          230.50609185 Eh            6272.38964 eV
Virial Ratio       :            2.00725015


DFT components:
N(Alpha)           :       21.000007483265 electrons
N(Beta)            :       21.000007483265 electrons
N(Total)           :       42.000014966530 electrons
E(XC)              :      -23.971168243249 Eh       
DFET-embed. en.    :        0.000000000000 Eh       

---------------
SCF CONVERGENCE
---------------

  Last Energy change         ...   -1.8694e-09  Tolerance :   1.0000e-08
  Last MAX-Density change    ...    2.0487e-15  Tolerance :   1.0000e-07
  Last RMS-Density change    ...    4.9774e-17  Tolerance :   5.0000e-09
  Last Orbital Gradient      ...    1.1100e-06  Tolerance :   1.0000e-05
  Last Orbital Rotation      ...    1.6801e-06  Tolerance :   1.0000e-05

             **** THE GBW FILE WAS UPDATED (C6H6--12C6H12_0_1_wb97x_xtb_6-31gpol_RC-1-layer.tddft.gbw) ****
             **** DENSITY C6H6--12C6H12_0_1_wb97x_xtb_6-31gpol_RC-1-layer.tddft.scfp WAS UPDATED ****
             **** ENERGY FILE WAS UPDATED (C6H6--12C6H12_0_1_wb97x_xtb_6-31gpol_RC-1-layer.tddft.en.tmp) ****
             **** THE GBW FILE WAS UPDATED (C6H6--12C6H12_0_1_wb97x_xtb_6-31gpol_RC-1-layer.tddft.gbw) ****
             **** DENSITY C6H6--12C6H12_0_1_wb97x_xtb_6-31gpol_RC-1-layer.tddft.scfp WAS UPDATED ****
----------------
ORBITAL ENERGIES
----------------

  NO   OCC          E(Eh)            E(eV) 
   0   2.0000     -10.267975      -279.4058 
   1   2.0000     -10.267880      -279.4032 
   2   2.0000     -10.267674      -279.3976 
   3   2.0000     -10.267387      -279.3898 
   4   2.0000     -10.267188      -279.3844 
   5   2.0000     -10.267084      -279.3816 
   6   2.0000      -0.981981       -26.7211 
   7   2.0000      -0.869935       -23.6721 
   8   2.0000      -0.869720       -23.6663 
   9   2.0000      -0.717669       -19.5288 
  10   2.0000      -0.716916       -19.5083 
  11   2.0000      -0.633948       -17.2506 
  12   2.0000      -0.567154       -15.4330 
  13   2.0000      -0.548066       -14.9136 
  14   2.0000      -0.523294       -14.2395 
  15   2.0000      -0.522660       -14.2223 
  16   2.0000      -0.476917       -12.9776 
  17   2.0000      -0.439125       -11.9492 
  18   2.0000      -0.437941       -11.9170 
  19   2.0000      -0.339966        -9.2509 
  20   2.0000      -0.339353        -9.2343 
  21   0.0000       0.086262         2.3473 
  22   0.0000       0.086647         2.3578 
  23   0.0000       0.183944         5.0054 
  24   0.0000       0.242924         6.6103 
  25   0.0000       0.243936         6.6378 
  26   0.0000       0.271206         7.3799 
  27   0.0000       0.280999         7.6464 
  28   0.0000       0.282159         7.6779 
  29   0.0000       0.291522         7.9327 
  30   0.0000       0.399594        10.8735 
  31   0.0000       0.401282        10.9194 
  32   0.0000       0.414880        11.2895 
  33   0.0000       0.416839        11.3428 
  34   0.0000       0.575159        15.6509 
  35   0.0000       0.630741        17.1633 
  36   0.0000       0.656858        17.8740 
  37   0.0000       0.662016        18.0144 
  38   0.0000       0.674178        18.3453 
  39   0.0000       0.701380        19.0855 
  40   0.0000       0.706566        19.2266 
  41   0.0000       0.707177        19.2433 
  42   0.0000       0.716213        19.4891 
  43   0.0000       0.717599        19.5268 
  44   0.0000       0.741129        20.1671 
  45   0.0000       0.741646        20.1812 
  46   0.0000       0.776801        21.1378 
  47   0.0000       0.776957        21.1421 
  48   0.0000       0.855482        23.2788 
  49   0.0000       0.956008        26.0143 
  50   0.0000       0.956667        26.0322 
  51   0.0000       0.966364        26.2961 
  52   0.0000       0.974785        26.5253 
  53   0.0000       0.976736        26.5783 
  54   0.0000       1.054149        28.6848 
  55   0.0000       1.055340        28.7173 
  56   0.0000       1.056541        28.7499 
  57   0.0000       1.079366        29.3710 
  58   0.0000       1.195630        32.5347 
  59   0.0000       1.197892        32.5963 
  60   0.0000       1.253070        34.0978 
  61   0.0000       1.256950        34.2033 
  62   0.0000       1.315651        35.8007 
  63   0.0000       1.361961        37.0608 
  64   0.0000       1.495194        40.6863 
  65   0.0000       1.542843        41.9829 
  66   0.0000       1.545246        42.0483 
  67   0.0000       1.589755        43.2594 
  68   0.0000       1.590981        43.2928 
  69   0.0000       1.618076        44.0301 
  70   0.0000       1.619072        44.0572 
  71   0.0000       1.863027        50.6956 
  72   0.0000       1.898198        51.6526 
  73   0.0000       1.958694        53.2988 
  74   0.0000       2.010116        54.6980 
  75   0.0000       2.075823        56.4860 
  76   0.0000       2.077249        56.5248 
  77   0.0000       2.178694        59.2853 
  78   0.0000       2.181859        59.3714 
  79   0.0000       2.255578        61.3774 
  80   0.0000       2.257033        61.4170 
  81   0.0000       2.264108        61.6095 
  82   0.0000       2.266214        61.6668 
  83   0.0000       2.413705        65.6803 
  84   0.0000       2.416905        65.7673 
  85   0.0000       2.428122        66.0726 
  86   0.0000       2.647816        72.0507 
  87   0.0000       2.649233        72.0893 
  88   0.0000       2.764825        75.2347 
  89   0.0000       2.816311        76.6357 
  90   0.0000       2.819457        76.7213 
  91   0.0000       2.838930        77.2512 
  92   0.0000       2.840787        77.3017 
  93   0.0000       2.859702        77.8165 
  94   0.0000       3.134492        85.2939 
  95   0.0000       3.519944        95.7825 

--------------------
FRAGMENT INFORMATION
--------------------
Fragment  1:    0   1   2   3   4   5   6   7   8   9 
               10  11 


                    ********************************
                    * MULLIKEN POPULATION ANALYSIS *
                    ********************************

-------------------------
MULLIKEN FRAGMENT CHARGES
-------------------------
 Fragment   0 :   0.000000
Sum of fragment charges:    0.0000000

---------------------------------
MULLIKEN FRAGMENT OVERLAP CHARGES
---------------------------------
                  0    
      0      51.692830

-----------------------
MULLIKEN ATOMIC CHARGES
-----------------------
   0 C :   -0.166695
   1 C :   -0.164528
   2 C :   -0.164206
   3 H :    0.165115
   4 H :    0.167555
   5 H :    0.162759
   6 C :   -0.166697
   7 C :   -0.164528
   8 C :   -0.164205
   9 H :    0.165117
  10 H :    0.167556
  11 H :    0.162758
Sum of atomic charges:    0.0000000

--------------------------------
MULLIKEN REDUCED ORBITAL CHARGES
--------------------------------
  0 C s       :     3.174740  s :     3.174740
      pz      :     0.961687  p :     2.955619
      px      :     0.971194
      py      :     1.022738
      dz2     :     0.008267  d :     0.036336
      dxz     :     0.005444
      dyz     :     0.006046
      dx2y2   :     0.009029
      dxy     :     0.007550
  1 C s       :     3.174509  s :     3.174509
      pz      :     0.996314  p :     2.953738
      px      :     1.009989
      py      :     0.947436
      dz2     :     0.004864  d :     0.036281
      dxz     :     0.006809
      dyz     :     0.008253
      dx2y2   :     0.008056
      dxy     :     0.008300
  2 C s       :     3.174809  s :     3.174809
      pz      :     0.998503  p :     2.953065
      px      :     0.976782
      py      :     0.977780
      dz2     :     0.004781  d :     0.036332
      dxz     :     0.005322
      dyz     :     0.009942
      dx2y2   :     0.007780
      dxy     :     0.008506
  3 H s       :     0.834885  s :     0.834885
  4 H s       :     0.832445  s :     0.832445
  5 H s       :     0.837241  s :     0.837241
  6 C s       :     3.174738  s :     3.174738
      pz      :     0.961687  p :     2.955622
      px      :     0.971195
      py      :     1.022741
      dz2     :     0.008267  d :     0.036336
      dxz     :     0.005444
      dyz     :     0.006046
      dx2y2   :     0.009029
      dxy     :     0.007550
  7 C s       :     3.174508  s :     3.174508
      pz      :     0.996315  p :     2.953738
      px      :     1.009988
      py      :     0.947435
      dz2     :     0.004864  d :     0.036281
      dxz     :     0.006809
      dyz     :     0.008253
      dx2y2   :     0.008056
      dxy     :     0.008300
  8 C s       :     3.174811  s :     3.174811
      pz      :     0.998502  p :     2.953062
      px      :     0.976781
      py      :     0.977779
      dz2     :     0.004781  d :     0.036332
      dxz     :     0.005322
      dyz     :     0.009942
      dx2y2   :     0.007780
      dxy     :     0.008506
  9 H s       :     0.834883  s :     0.834883
 10 H s       :     0.832444  s :     0.832444
 11 H s       :     0.837242  s :     0.837242

------------------------
MULLIKEN OVERLAP CHARGES
------------------------
B(  0-C ,  1-C ) :   1.1159 B(  0-C ,  2-C ) :  -0.0780 B(  0-C ,  3-H ) :   0.7461 
B(  0-C ,  4-H ) :  -0.0730 B(  0-C ,  6-C ) :  -0.0721 B(  0-C ,  7-C ) :  -0.0773 
B(  0-C ,  8-C ) :   1.1207 B(  0-C , 11-H ) :  -0.0734 B(  1-C ,  2-C ) :   1.1228 
B(  1-C ,  3-H ) :  -0.0726 B(  1-C ,  4-H ) :   0.7465 B(  1-C ,  5-H ) :  -0.0727 
B(  1-C ,  6-C ) :  -0.0773 B(  1-C ,  7-C ) :  -0.0714 B(  1-C ,  8-C ) :  -0.0771 
B(  2-C ,  4-H ) :  -0.0702 B(  2-C ,  5-H ) :   0.7468 B(  2-C ,  6-C ) :   1.1207 
B(  2-C ,  7-C ) :  -0.0771 B(  2-C ,  8-C ) :  -0.0708 B(  2-C ,  9-H ) :  -0.0722 
B(  3-H ,  8-C ) :  -0.0722 B(  5-H ,  6-C ) :  -0.0734 B(  6-C ,  7-C ) :   1.1159 
B(  6-C ,  8-C ) :  -0.0780 B(  6-C ,  9-H ) :   0.7461 B(  6-C , 10-H ) :  -0.0730 
B(  7-C ,  8-C ) :   1.1228 B(  7-C ,  9-H ) :  -0.0726 B(  7-C , 10-H ) :   0.7465 
B(  7-C , 11-H ) :  -0.0727 B(  8-C , 10-H ) :  -0.0702 B(  8-C , 11-H ) :   0.7468 



                     *******************************
[...]

STATE  1:  E=   0.211575 au      5.757 eV    46435.3 cm**-1 <S**2> =   0.000000
    19a ->  21a  :     0.344456 (c= -0.58690389)
    19a ->  22a  :     0.151492 (c=  0.38921927)
    20a ->  21a  :     0.154300 (c= -0.39281078)
    20a ->  22a  :     0.346736 (c= -0.58884311)

STATE  2:  E=   0.247816 au      6.743 eV    54389.4 cm**-1 <S**2> =   0.000000
    19a ->  21a  :     0.147864 (c= -0.38453027)
    19a ->  22a  :     0.333831 (c= -0.57778087)
    20a ->  21a  :     0.341821 (c=  0.58465466)
    20a ->  22a  :     0.151019 (c= -0.38861128)

STATE  3:  E=   0.301579 au      8.206 eV    66188.9 cm**-1 <S**2> =   0.000000
    17a ->  22a  :     0.015664 (c= -0.12515700)
    18a ->  21a  :     0.010104 (c=  0.10051661)
    19a ->  21a  :     0.451988 (c=  0.67230042)
    20a ->  22a  :     0.446564 (c= -0.66825480)

STATE  4:  E=   0.301772 au      8.212 eV    66231.2 cm**-1 <S**2> =   0.000000
    17a ->  21a  :     0.015738 (c= -0.12545006)
    18a ->  22a  :     0.010948 (c= -0.10463340)
    19a ->  22a  :     0.454351 (c= -0.67405579)
    20a ->  21a  :     0.443235 (c= -0.66575879)

STATE  5:  E=   0.302845 au      8.241 eV    66466.8 cm**-1 <S**2> =   0.000000
    13a ->  26a  :     0.014525 (c= -0.12051914)
    17a ->  21a  :     0.098172 (c=  0.31332456)
    17a ->  22a  :     0.228589 (c=  0.47810940)
    18a ->  21a  :     0.483139 (c=  0.69508203)
    18a ->  22a  :     0.164483 (c= -0.40556524)

STATE  6:  E=   0.306172 au      8.331 eV    67196.9 cm**-1 <S**2> =   0.000000
    17a ->  21a  :     0.120739 (c=  0.34747559)
    18a ->  21a  :     0.282982 (c= -0.53196044)
    18a ->  22a  :     0.567206 (c= -0.75313062)

STATE  7:  E=   0.307354 au      8.364 eV    67456.5 cm**-1 <S**2> =   0.000000
    17a ->  21a  :     0.575129 (c=  0.75837252)
    17a ->  22a  :     0.078891 (c=  0.28087616)
    18a ->  21a  :     0.060884 (c= -0.24674671)
    18a ->  22a  :     0.238451 (c=  0.48831495)
    19a ->  22a  :     0.010418 (c= -0.10206648)
    20a ->  21a  :     0.010662 (c= -0.10325793)

STATE  8:  E=   0.307562 au      8.369 eV    67502.0 cm**-1 <S**2> =   0.000000
    17a ->  21a  :     0.171342 (c= -0.41393515)
    17a ->  22a  :     0.646804 (c=  0.80424096)
    18a ->  21a  :     0.141865 (c= -0.37665025)

STATE  9:  E=   0.333079 au      9.064 eV    73102.3 cm**-1 <S**2> =   0.000000
    16a ->  25a  :     0.014617 (c=  0.12090123)
    19a ->  23a  :     0.036771 (c= -0.19175801)
    20a ->  23a  :     0.925187 (c= -0.96186625)

STATE 10:  E=   0.333703 au      9.081 eV    73239.3 cm**-1 <S**2> =   0.000000
    16a ->  24a  :     0.015023 (c=  0.12256955)
    19a ->  23a  :     0.924695 (c= -0.96161076)
    20a ->  23a  :     0.036855 (c=  0.19197628)

STATE 11:  E=   0.375650 au     10.222 eV    82445.7 cm**-1 <S**2> =   0.000000
    16a ->  21a  :     0.945568 (c= -0.97240297)
    16a ->  22a  :     0.010403 (c=  0.10199340)

STATE 12:  E=   0.375886 au     10.228 eV    82497.4 cm**-1 <S**2> =   0.000000
    16a ->  21a  :     0.010476 (c= -0.10235016)
    16a ->  22a  :     0.946767 (c= -0.97301969)

STATE 13:  E=   0.377692 au     10.278 eV    82893.9 cm**-1 <S**2> =   0.000000
    16a ->  23a  :     0.143004 (c=  0.37815835)
    19a ->  24a  :     0.367050 (c= -0.60584672)
    19a ->  25a  :     0.061834 (c=  0.24866469)
    20a ->  24a  :     0.076851 (c= -0.27721993)
    20a ->  25a  :     0.340332 (c= -0.58337939)

STATE 14:  E=   0.380377 au     10.351 eV    83483.1 cm**-1 <S**2> =   0.000000
    11a ->  26a  :     0.015068 (c=  0.12275149)
    13a ->  21a  :     0.012069 (c= -0.10985908)
    14a ->  21a  :     0.198488 (c= -0.44551970)
    15a ->  21a  :     0.269371 (c= -0.51901004)
    15a ->  22a  :     0.464133 (c=  0.68127313)
    18a ->  26a  :     0.015878 (c=  0.12600769)

STATE 15:  E=   0.381713 au     10.387 eV    83776.2 cm**-1 <S**2> =   0.000000
    13a ->  21a  :     0.046405 (c= -0.21541858)
    13a ->  22a  :     0.054182 (c=  0.23276977)
    14a ->  21a  :     0.182745 (c=  0.42748651)
    14a ->  22a  :     0.426250 (c=  0.65287826)
    15a ->  21a  :     0.179625 (c= -0.42382246)
    18a ->  26a  :     0.074301 (c=  0.27258233)

STATE 16:  E=   0.382280 au     10.402 eV    83900.8 cm**-1 <S**2> =   0.000000
    13a ->  21a  :     0.062994 (c=  0.25098561)
    13a ->  22a  :     0.056163 (c=  0.23698764)
    14a ->  21a  :     0.385309 (c= -0.62073224)
    14a ->  22a  :     0.036280 (c=  0.19047211)
    15a ->  21a  :     0.052150 (c= -0.22836350)
    15a ->  22a  :     0.288236 (c= -0.53687626)
    17a ->  26a  :     0.087519 (c= -0.29583679)

STATE 17:  E=   0.395526 au     10.763 eV    86807.9 cm**-1 <S**2> =   0.000000
    16a ->  27a  :     0.016865 (c=  0.12986407)
    19a ->  24a  :     0.108845 (c= -0.32991657)
    19a ->  25a  :     0.344638 (c=  0.58705873)
    19a ->  29a  :     0.017931 (c= -0.13390689)
    20a ->  24a  :     0.413118 (c=  0.64274259)
    20a ->  25a  :     0.083807 (c=  0.28949397)

STATE 18:  E=   0.395812 au     10.771 eV    86870.8 cm**-1 <S**2> =   0.000000
    16a ->  28a  :     0.016227 (c= -0.12738425)
    19a ->  24a  :     0.353248 (c=  0.59434695)
    19a ->  25a  :     0.089034 (c=  0.29838631)
    20a ->  24a  :     0.101884 (c=  0.31919277)
    20a ->  25a  :     0.404924 (c= -0.63633654)
    20a ->  29a  :     0.019594 (c= -0.13998023)

STATE 19:  E=   0.396326 au     10.785 eV    86983.4 cm**-1 <S**2> =   0.000000
    14a ->  21a  :     0.088857 (c= -0.29808946)
    14a ->  22a  :     0.385316 (c=  0.62073849)
    15a ->  21a  :     0.390377 (c=  0.62480151)
    15a ->  22a  :     0.123803 (c=  0.35185637)

STATE 20:  E=   0.401936 au     10.937 eV    88214.8 cm**-1 <S**2> =   0.000000
    13a ->  21a  :     0.585173 (c= -0.76496592)
    13a ->  22a  :     0.228232 (c= -0.47773639)
    14a ->  21a  :     0.087676 (c= -0.29610146)
    15a ->  22a  :     0.060443 (c= -0.24585161)


-----------------------------
TD-DFT/TDA-EXCITATION SPECTRA
-----------------------------

Center of mass = (  7.0008,  8.9328, 12.8140)
Calculating the Dipole integrals                  ... done
Transforming integrals                            ... done
Calculating the Linear Momentum integrals         ... done
Transforming integrals                            ... done
Calculating angular momentum integrals            ... done
Transforming integrals                            ... done

-----------------------------------------------------------------------------
         ABSORPTION SPECTRUM VIA TRANSITION ELECTRIC DIPOLE MOMENTS
-----------------------------------------------------------------------------
State   Energy    Wavelength  fosc         T2        TX        TY        TZ  
        (cm-1)      (nm)                 (au**2)    (au)      (au)      (au) 
-----------------------------------------------------------------------------
   1   46435.3    215.4   0.000008830   0.00006   0.00508  -0.00185   0.00578
   2   54389.4    183.9   0.000033945   0.00021  -0.00642  -0.00970  -0.00837
   3   66188.9    151.1   0.933528577   4.64321   0.28720  -1.89662   0.98160
   4   66231.2    151.0   0.936197311   4.65351   1.54946   0.87229   1.22139
   5   66466.8    150.5   0.000481774   0.00239  -0.03722  -0.02274  -0.02199
   6   67196.9    148.8   0.010614156   0.05200   0.09249  -0.19080  -0.08391
   7   67456.5    148.2   0.031571503   0.15408   0.29950   0.00162   0.25372
   8   67502.0    148.1   0.025229139   0.12304  -0.10077  -0.31170   0.12543
   9   73102.3    136.8   0.000000000   0.00000   0.00000  -0.00000   0.00000
  10   73239.3    136.5   0.000000000   0.00000   0.00000   0.00000   0.00000
  11   82445.7    121.3   0.000000000   0.00000  -0.00000   0.00000  -0.00000
  12   82497.4    121.2   0.000000000   0.00000   0.00000   0.00000  -0.00000
  13   82893.9    120.6   0.000033020   0.00013   0.00267  -0.00278  -0.01078
  14   83483.1    119.8   0.000000000   0.00000  -0.00000   0.00000  -0.00000
  15   83776.2    119.4   0.000000000   0.00000   0.00000  -0.00000   0.00000
  16   83900.8    119.2   0.000000000   0.00000   0.00000  -0.00000   0.00000
  17   86807.9    115.2   0.000212345   0.00081   0.00206   0.02743  -0.00698
  18   86870.8    115.1   0.000134248   0.00051  -0.01610  -0.00356  -0.01539
  19   86983.4    115.0   0.000000000   0.00000  -0.00000  -0.00000  -0.00000
  20   88214.8    113.4   0.000000000   0.00000  -0.00000  -0.00000   0.00000

-----------------------------------------------------------------------------
         ABSORPTION SPECTRUM VIA TRANSITION VELOCITY DIPOLE MOMENTS
-----------------------------------------------------------------------------
State   Energy    Wavelength   fosc        P2         PX        PY        PZ  
        (cm-1)      (nm)                 (au**2)     (au)      (au)      (au) 
-----------------------------------------------------------------------------
   1   46435.3    215.4   0.000000124   0.00000  -0.00010   0.00009  -0.00015
   2   54389.4    183.9   0.000000727   0.00000   0.00025  -0.00041   0.00019
   3   66188.9    151.1   0.058055988   0.02626  -0.02135   0.14273  -0.07372
   4   66231.2    151.0   0.057741669   0.02614  -0.11586  -0.06495  -0.09217
   5   66466.8    150.5   0.000035286   0.00002   0.00326   0.00202   0.00115
   6   67196.9    148.8   0.003772537   0.00173  -0.02498   0.02196   0.02502
   7   67456.5    148.2   0.002356652   0.00109  -0.02784   0.00076  -0.01763
   8   67502.0    148.1   0.002341514   0.00108   0.01565   0.02168  -0.01911
   9   73102.3    136.8   0.000000000   0.00000  -0.00000   0.00000  -0.00000
  10   73239.3    136.5   0.000000000   0.00000  -0.00000  -0.00000  -0.00000
  11   82445.7    121.3   0.000000000   0.00000  -0.00000  -0.00000   0.00000
  12   82497.4    121.2   0.000000000   0.00000   0.00000  -0.00000  -0.00000
  13   82893.9    120.6   0.011087276   0.00628  -0.05265   0.01978   0.05584
  14   83483.1    119.8   0.000000000   0.00000  -0.00000  -0.00000   0.00000
  15   83776.2    119.4   0.000000000   0.00000   0.00000   0.00000  -0.00000
  16   83900.8    119.2   0.000000000   0.00000   0.00000   0.00000  -0.00000
  17   86807.9    115.2   0.000098647   0.00006  -0.00117  -0.00717   0.00240
  18   86870.8    115.1   0.000073047   0.00004   0.00294   0.00173   0.00563
  19   86983.4    115.0   0.000000000   0.00000   0.00000   0.00000   0.00000
  20   88214.8    113.4   0.000000000   0.00000   0.00000  -0.00000  -0.00000

-------------------------------------------------------------------
                             CD SPECTRUM
-------------------------------------------------------------------
State  Energy     Wavelength     R         MX        MY        MZ   
       (cm-1)       (nm)     (1e40*cgs)   (au)      (au)      (au)  
-------------------------------------------------------------------
   1   46435.3    215.4     -0.00000   0.00000   0.00000  -0.00000
   2   54389.4    183.9     -0.00001   0.00000   0.00000   0.00000
   3   66188.9    151.1      0.00059   0.00000   0.00000   0.00000
   4   66231.2    151.0     -0.00063  -0.00000   0.00000  -0.00000
   5   66466.8    150.5     -0.00009   0.00000   0.00001  -0.00000
   6   67196.9    148.8     -0.00036  -0.00001   0.00000  -0.00001
   7   67456.5    148.2      0.00017  -0.00000  -0.00001   0.00000
   8   67502.0    148.1     -0.00046  -0.00001   0.00000  -0.00001
   9   73102.3    136.8     -0.00003   0.10565   0.28612  -0.00183
  10   73239.3    136.5      0.00006   0.20045  -0.07143   0.22154
  11   82445.7    121.3      0.00001   0.00411   0.04027  -0.00757
  12   82497.4    121.2     -0.00000   0.00074  -0.01190   0.00198
  13   82893.9    120.6     -0.00001   0.00000   0.00000   0.00000
  14   83483.1    119.8     -0.00085   0.33356  -0.05620   0.34966
  15   83776.2    119.4      0.00138   0.68027  -0.30606   0.78243
  16   83900.8    119.2      0.00041  -0.42298  -1.08893  -0.01735
  17   86807.9    115.2      0.00001  -0.00000   0.00000  -0.00000
  18   86870.8    115.1     -0.00000  -0.00000  -0.00000   0.00000
  19   86983.4    115.0      0.00004   0.01778  -0.05506   0.02214
  20   88214.8    113.4     -0.00032   0.18953   0.35116   0.05213

-------------------------------------------------------------------
         CD SPECTRUM VIA TRANSITION VELOCITY DIPOLE MOMENTS        
-------------------------------------------------------------------
State  Energy     Wavelength     R         MX        MY        MZ   
       (cm-1)       (nm)     (1e40*cgs)   (au)      (au)      (au)  
-------------------------------------------------------------------
   1   46435.3    215.4      0.00000   0.00000   0.00000  -0.00000
   2   54389.4    183.9     -0.00000   0.00000   0.00000   0.00000
   3   66188.9    151.1     -0.00014   0.00000   0.00000   0.00000
   4   66231.2    151.0      0.00016  -0.00000   0.00000  -0.00000
   5   66466.8    150.5      0.00003   0.00000   0.00001  -0.00000
   6   67196.9    148.8      0.00009  -0.00001   0.00000  -0.00001
   7   67456.5    148.2     -0.00004  -0.00000  -0.00001   0.00000
   8   67502.0    148.1      0.00014  -0.00001   0.00000  -0.00001
   9   73102.3    136.8      0.00020   0.10565   0.28612  -0.00183
  10   73239.3    136.5     -0.00014   0.20045  -0.07143   0.22154
  11   82445.7    121.3     -0.00000   0.00411   0.04027  -0.00757
  12   82497.4    121.2      0.00000   0.00074  -0.01190   0.00198
  13   82893.9    120.6     -0.00000   0.00000   0.00000   0.00000
  14   83483.1    119.8      0.00011   0.33356  -0.05620   0.34966
  15   83776.2    119.4     -0.00031   0.68027  -0.30606   0.78243
  16   83900.8    119.2     -0.00024  -0.42298  -1.08893  -0.01735
  17   86807.9    115.2     -0.00001  -0.00000   0.00000  -0.00000
  18   86870.8    115.1      0.00000  -0.00000  -0.00000   0.00000
  19   86983.4    115.0      0.00001   0.01778  -0.05506   0.02214
  20   88214.8    113.4      0.00005   0.18953   0.35116   0.05213

Total run time:       21.326 sec

           *** ORCA-CIS/TD-DFT FINISHED WITHOUT ERROR ***

Maximum memory used throughout the entire CIS-calculation: 46.5 MB

-----------------------
CIS/TD-DFT TOTAL ENERGY
-----------------------

    E(SCF)  =   -232.177295670 Eh
    DE(CIS) =      0.211574850 Eh (Root  1)
    ----------------------------- ---------
    E(tot)  =   -231.965720819 Eh



-------------------------------------------------------------------------------
                          DFT DISPERSION CORRECTION                            
                                                                               
                                 DFTD4 V2.5                                    
-------------------------------------------------------------------------------
The WB97X functional is recognized
Active option DFTDOPT                   ...         5   

Starting D4
-------------------------   ----------------
Dispersion correction           -0.001354136
-------------------------   ----------------


-------------------------   --------------------
FINAL SINGLE POINT ENERGY      -231.967074955602
-------------------------   --------------------



--------------------------------------   --------------------
FINAL SINGLE POINT ENERGY (QM/QM2)     -422.613998355212
--------------------------------------   --------------------


                            ***************************************
                            *     ORCA property calculations      *
                            ***************************************

                                    ---------------------
                                    Active property flags
                                    ---------------------
   (+) Dipole Moment


------------------------------------------------------------------------------
                       ORCA ELECTRIC PROPERTIES CALCULATION
------------------------------------------------------------------------------

Dipole Moment Calculation                       ... on
Quadrupole Moment Calculation                   ... off
Polarizability Calculation                      ... off
GBWName                                         ... C6H6--12C6H12_0_1_wb97x_xtb_6-31gpol_RC-1-layer.tddft.gbw
Electron density                                ... C6H6--12C6H12_0_1_wb97x_xtb_6-31gpol_RC-1-layer.tddft.scfp
SHARK General Contraction Test:  Segmented basis detected
   -> Pre-screening matrix found on disk - Trying to read with NShells=48
   -> Passing Pre-screening matrix on to SHARK ...ok
   -> Leaving CheckPreScreeningMatrix
----------------------
SHARK INTEGRAL PACKAGE
----------------------

Number of atoms                             ...     12
Number of basis functions                   ...     96
Number of shells                            ...     48
Maximum angular momentum                    ...      2
Integral batch strategy                     ... SHARK/LIBINT Hybrid
RI-J (if used) integral strategy            ... SPLIT-RIJ (Revised 2003 algorithm where possible)
Printlevel                                  ...      2
Contraction scheme used                     ... SEGMENTED contraction
Coulomb Range Separation                    ... NOT USED
Exchange Range Separation                   ... Long Range
   Mu parameter                             ...  0.300000
   Scaling (regular/separated)              ...  0.157706  0.842294
Finite Nucleus Model                        ... NOT USED
Auxiliary Coulomb fitting basis             ... AVAILABLE
   # of basis functions in Aux-J            ...    750
   # of shells in Aux-J                     ...    282
   Maximum angular momentum in Aux-J        ...      3
Auxiliary J/K fitting basis                 ... AVAILABLE
   # of basis functions in Aux-JK           ...    750
   # of shells in Aux-JK                    ...    282
   Maximum angular momentum in Aux-JK       ...      3
Auxiliary Correlation fitting basis         ... AVAILABLE
   # of basis functions in Aux-C            ...    750
   # of shells in Aux-C                     ...    282
   Maximum angular momentum in Aux-C        ...      3
Auxiliary 'external' fitting basis          ... NOT available
Integral threshold                          ...     2.500000e-11
Primitive cut-off                           ...     2.500000e-12
Primitive pair pre-selection threshold      ...     2.500000e-12

The origin for moment calculation is the CENTER OF MASS  = ( 7.000774,  8.932830 12.814044)

-------------
DIPOLE MOMENT
-------------
                                X             Y             Z
Electronic contribution:      0.00000      -0.00000       0.00000
Nuclear contribution   :     -0.00000       0.00000      -0.00000
                        -----------------------------------------
Total Dipole Moment    :      0.00000       0.00000       0.00000
                        -----------------------------------------
Magnitude (a.u.)       :      0.00000
Magnitude (Debye)      :      0.00000



--------------------
Rotational spectrum 
--------------------
 
Rotational constants in cm-1:     0.189991     0.189523     0.094879 
Rotational constants in MHz :  5695.780402  5681.756810  2844.394283 

 Dipole components along the rotational axes: 
x,y,z [a.u.] :    -0.000000    -0.000000     0.000000 
x,y,z [Debye]:    -0.000001    -0.000000     0.000000 

 

Timings for individual modules:

Sum of individual times         ...       40.628 sec (=   0.677 min)
GTO integral calculation        ...        3.188 sec (=   0.053 min)   7.8 %
SCF iterations                  ...       11.939 sec (=   0.199 min)  29.4 %
CIS module                      ...       24.145 sec (=   0.402 min)  59.4 %
XTB module                      ...        0.678 sec (=   0.011 min)   1.7 %
ONIOM_Small energy and gradient ...        0.093 sec (=   0.002 min)   0.2 %
ONIOM_Large energy and gradient ...        0.586 sec (=   0.010 min)   1.4 %
                             ****ORCA TERMINATED NORMALLY****
TOTAL RUN TIME: 0 days 0 hours 0 minutes 48 seconds 744 msec
