
                                 *****************
                                 * O   R   C   A *
                                 *****************

           --- An Ab Initio, DFT and Semiempirical electronic structure package ---

                  #######################################################
                  #                        -***-                        #
                  #          Department of theory and spectroscopy      #
                  #               Directorship: Frank Neese             #
                  #        Max Planck Institute fuer Kohlenforschung    #
                  #                Kaiser Wilhelm Platz 1               #
                  #                 D-45470 Muelheim/Ruhr               #
                  #                      Germany                        #
                  #                                                     #
                  #                  All rights reserved                #
                  #                        -***-                        #
                  #######################################################


                         Program Version 4.2.0 -  RELEASE  -


 With contributions from (in alphabetic order):
   Daniel Aravena         : Magnetic Suceptibility
   Michael Atanasov       : Ab Initio Ligand Field Theory (pilot matlab implementation)
   Alexander A. Auer      : GIAO ZORA, VPT2
   Ute Becker             : Parallelization
   Giovanni Bistoni       : ED, misc. LED, open-shell LED, HFLED
   Martin Brehm           : Molecular dynamics
   Dmytro Bykov           : SCF Hessian
   Vijay G. Chilkuri      : MRCI spin determinant printing, contributions to CSF-ICE
   Dipayan Datta          : RHF DLPNO-CCSD density
   Achintya Kumar Dutta   : EOM-CC, STEOM-CC
   Dmitry Ganyushin       : Spin-Orbit,Spin-Spin,Magnetic field MRCI
   Miquel Garcia          : C-PCM Hessian, Gaussian charge scheme
   Yang Guo               : DLPNO-NEVPT2, CIM, IAO-localization
   Andreas Hansen         : Spin unrestricted coupled pair/coupled cluster methods
   Benjamin Helmich-Paris : CASSCF linear response (MC-RPA)
   Lee Huntington         : MR-EOM, pCC
   Robert Izsak           : Overlap fitted RIJCOSX, COSX-SCS-MP3, EOM
   Christian Kollmar      : KDIIS, OOCD, Brueckner-CCSD(T), CCSD density
   Simone Kossmann        : Meta GGA functionals, TD-DFT gradient, OOMP2, MP2 Hessian
   Martin Krupicka        : AUTO-CI
   Lucas Lang             : DCDCAS
   Dagmar Lenk            : GEPOL surface, SMD
   Dimitrios Liakos       : Extrapolation schemes; Compound Job, initial MDCI parallelization
   Dimitrios Manganas     : Further ROCIS development; embedding schemes
   Dimitrios Pantazis     : SARC Basis sets
   Taras Petrenko         : DFT Hessian,TD-DFT gradient, ASA, ECA, R-Raman, ABS, FL, XAS/XES, NRVS
   Peter Pinski           : DLPNO-MP2, DLPNO-MP2 Gradient
   Christoph Reimann      : Effective Core Potentials
   Marius Retegan         : Local ZFS, SOC
   Christoph Riplinger    : Optimizer, TS searches, QM/MM, DLPNO-CCSD(T), (RO)-DLPNO pert. Triples
   Tobias Risthaus        : Range-separated hybrids, TD-DFT gradient, RPA, STAB
   Michael Roemelt        : Original ROCIS implementation
   Masaaki Saitow         : Open-shell DLPNO-CCSD energy and density
   Barbara Sandhoefer     : DKH picture change effects
   Avijit Sen             : IP-ROCIS
   Kantharuban Sivalingam : CASSCF convergence, NEVPT2, FIC-MRCI
   Bernardo de Souza      : ESD, SOC TD-DFT
   Georgi Stoychev        : AutoAux, RI-MP2 NMR
   Willem Van den Heuvel  : Paramagnetic NMR
   Boris Wezisla          : Elementary symmetry handling
   Frank Wennmohs         : Technical directorship


 We gratefully acknowledge several colleagues who have allowed us to
 interface, adapt or use parts of their codes:
   Stefan Grimme, W. Hujo, H. Kruse,             : VdW corrections, initial TS optimization,
                  C. Bannwarth                     DFT functionals, gCP, sTDA/sTD-DF
   Ed Valeev, F. Pavosevic, A. Kumar             : LibInt (2-el integral package), F12 methods
   Garnet Chan, S. Sharma, J. Yang, R. Olivares  : DMRG
   Ulf Ekstrom                                   : XCFun DFT Library
   Mihaly Kallay                                 : mrcc  (arbitrary order and MRCC methods)
   Andreas Klamt, Michael Diedenhofen            : otool_cosmo (COSMO solvation model)
   Jiri Pittner, Ondrej Demel                    : Mk-CCSD
   Frank Weinhold                                : gennbo (NPA and NBO analysis)
   Christopher J. Cramer and Donald G. Truhlar   : smd solvation model
   Lars Goerigk                                  : TD-DFT with DH, B97 family of functionals
   V. Asgeirsson, H. Jonsson                     : NEB implementation
   FAccTs GmbH                                   : IRC, NEB, NEB-TS, Multilevel, MM, QM/MM, CI optimization
   S Lehtola, MJT Oliveira, MAL Marques          : LibXC Library


 Your calculation uses the libint2 library for the computation of 2-el integrals
 For citations please refer to: http://libint.valeyev.net

 Your ORCA version has been built with support for libXC version: 4.2.3
 For citations please refer to: https://tddft.org/programs/libxc/

 This ORCA versions uses:
   CBLAS   interface :  Fast vector & matrix operations
   LAPACKE interface :  Fast linear algebra routines
   SCALAPACK package :  Parallel linear algebra routines




***************************************
The coordinates will be read from file: benzene_0_1_bp86_6-31gpol.eopt.xyz
***************************************


----- Orbital basis set information -----
Your calculation utilizes the basis: def2-SVP
   F. Weigend and R. Ahlrichs, Phys. Chem. Chem. Phys. 7, 3297 (2005).

----- AuxJ basis set information -----
Your calculation utilizes the AutoAux generation procedure.
  G. L. Stoychev, A. A. Auer, F. Neese, J. Chem. Theory Comput. 13, 554 (2017)

----- AuxC basis set information -----
Your calculation utilizes the AutoAux generation procedure.
  G. L. Stoychev, A. A. Auer, F. Neese, J. Chem. Theory Comput. 13, 554 (2017)

----- AuxJK basis set information -----
Your calculation utilizes the AutoAux generation procedure.
  G. L. Stoychev, A. A. Auer, F. Neese, J. Chem. Theory Comput. 13, 554 (2017)

================================================================================
                                        WARNINGS
                       Please study these warnings very carefully!
================================================================================

INFO   : Checking CIS options ...
  ===> : (D) CORRECTION FOUND - SETTING MODE=3
  ===> : JK MODE FOUND - ACTIVATING RI-MP2 CODE
  ===> : MP2 AND CIS FOUND - CHECKING
WARNING: CIS(D) and MP2 runs must have the same orbital window
  ===> : adjusting orbital windows

WARNING: No MP2 level density has been requested!
         To caclulate MP2 level properties use
         %mp2 Density relaxed end
         or
         %mp2 Density unrelaxed end
         Otherwise for double-hybrid DFT only the energy is correct!

WARNING:  You are using a Range-Separated Double Hybrid functional with Doubles Correction 
          Changing Mode to AOINTS 


WARNING: CIS/ROCIS methods need fully converged wavefunctions
  ===> : Setting SCFConvForced true
         You can overwrite this default with %scf ConvForced false 


INFO   : the flag for use of LIBINT has been found!

================================================================================
                                       INPUT FILE
================================================================================
NAME = benzene_0_1_wb2plyp_def2-svp.tddft.inp
|  1> !uks wb2plyp def2-svp tightscf
|  2> !autoaux
|  3> !normalprint
|  4> !pal4
|  5> 
|  6> %scf
|  7>   maxiter 500
|  8> end
|  9> 
| 10> %tddft
| 11>   nroots 10
| 12> end
| 13> 
| 14> *xyzfile 0 1 benzene_0_1_bp86_6-31gpol.eopt.xyz
| 15> 
| 16>                          ****END OF INPUT****
================================================================================

                       ****************************
                       * Single Point Calculation *
                       ****************************

---------------------------------
CARTESIAN COORDINATES (ANGSTROEM)
---------------------------------
  C      1.423723   -0.228462    0.005652
  C      0.521402   -1.345298   -0.009075
  C     -0.897564   -1.122790   -0.014168
  C     -1.414165    0.217473   -0.004650
  C     -0.511846    1.334305    0.010089
  C      0.907124    1.111798    0.015157
  H      2.504241   -0.398629    0.009723
  H      0.914777   -2.365583   -0.016528
  H     -1.584211   -1.973613   -0.025418
  H     -2.494686    0.387615   -0.008718
  H     -0.905207    2.354594    0.017591
  H      1.593762    1.962629    0.026355

----------------------------
CARTESIAN COORDINATES (A.U.)
----------------------------
  NO LB      ZA    FRAG     MASS         X           Y           Z
   0 C     6.0000    0    12.011    2.690447   -0.431730    0.010681
   1 C     6.0000    0    12.011    0.985308   -2.542246   -0.017150
   2 C     6.0000    0    12.011   -1.696150   -2.121765   -0.026773
   3 C     6.0000    0    12.011   -2.672385    0.410964   -0.008787
   4 C     6.0000    0    12.011   -0.967248    2.521471    0.019065
   5 C     6.0000    0    12.011    1.714216    2.100993    0.028642
   6 H     1.0000    0     1.008    4.732329   -0.753299    0.018374
   7 H     1.0000    0     1.008    1.728678   -4.470303   -0.031233
   8 H     1.0000    0     1.008   -2.993724   -3.729587   -0.048032
   9 H     1.0000    0     1.008   -4.714274    0.732487   -0.016474
  10 H     1.0000    0     1.008   -1.710594    4.449538    0.033242
  11 H     1.0000    0     1.008    3.011773    3.708831    0.049803

--------------------------------
INTERNAL COORDINATES (ANGSTROEM)
--------------------------------
 C      0   0   0     0.000000000000     0.00000000     0.00000000
 C      1   0   0     1.435870327281     0.00000000     0.00000000
 C      2   1   0     1.436315110382   120.02408126     0.00000000
 C      3   2   1     1.436409326943   119.98855288     0.00000000
 C      4   3   2     1.435866129678   119.98728256     0.00000000
 C      5   4   3     1.436318091568   120.02423321     0.00000000
 H      1   2   3     1.093842622748   119.98638945   179.98790693
 H      2   1   3     1.093516813550   119.98215063   179.99324351
 H      3   2   1     1.093393638830   119.99333080   179.99794073
 H      4   3   2     1.093842244822   120.02496612   179.98812575
 H      5   4   3     1.093517102016   119.98281931   180.01556272
 H      6   5   4     1.093393706874   119.99275303   179.99838620

---------------------------
INTERNAL COORDINATES (A.U.)
---------------------------
 C      0   0   0     0.000000000000     0.00000000     0.00000000
 C      1   0   0     2.713401682385     0.00000000     0.00000000
 C      2   1   0     2.714242200634   120.02408126     0.00000000
 C      3   2   1     2.714420244132   119.98855288     0.00000000
 C      4   3   2     2.713393750065   119.98728256     0.00000000
 C      5   4   3     2.714247834261   120.02423321     0.00000000
 H      1   2   3     2.067062990603   119.98638945   179.98790693
 H      2   1   3     2.066447300447   119.98215063   179.99324351
 H      3   2   1     2.066214533960   119.99333080   179.99794073
 H      4   3   2     2.067062276428   120.02496612   179.98812575
 H      5   4   3     2.066447845570   119.98281931   180.01556272
 H      6   5   4     2.066214662545   119.99275303   179.99838620

---------------------
BASIS SET INFORMATION
---------------------
There are 2 groups of distinct atoms

 Group   1 Type C   : 7s4p1d contracted to 3s2p1d pattern {511/31/1}
 Group   2 Type H   : 4s1p contracted to 2s1p pattern {31/1}

Atom   0C    basis set group =>   1
Atom   1C    basis set group =>   1
Atom   2C    basis set group =>   1
Atom   3C    basis set group =>   1
Atom   4C    basis set group =>   1
Atom   5C    basis set group =>   1
Atom   6H    basis set group =>   2
Atom   7H    basis set group =>   2
Atom   8H    basis set group =>   2
Atom   9H    basis set group =>   2
Atom  10H    basis set group =>   2
Atom  11H    basis set group =>   2
---------------------------------
AUXILIARY/J BASIS SET INFORMATION
---------------------------------
There are 2 groups of distinct atoms

 Group   1 Type C   : 14s11p10d2f contracted to 14s11p10d2f pattern {11111111111111/11111111111/1111111111/11}
 Group   2 Type H   : 9s2p1d contracted to 9s2p1d pattern {111111111/11/1}

Atom   0C    basis set group =>   1
Atom   1C    basis set group =>   1
Atom   2C    basis set group =>   1
Atom   3C    basis set group =>   1
Atom   4C    basis set group =>   1
Atom   5C    basis set group =>   1
Atom   6H    basis set group =>   2
Atom   7H    basis set group =>   2
Atom   8H    basis set group =>   2
Atom   9H    basis set group =>   2
Atom  10H    basis set group =>   2
Atom  11H    basis set group =>   2
---------------------------------
AUXILIARY/C BASIS SET INFORMATION
---------------------------------
There are 2 groups of distinct atoms

 Group   1 Type C   : 14s11p10d2f contracted to 14s11p10d2f pattern {11111111111111/11111111111/1111111111/11}
 Group   2 Type H   : 9s2p1d contracted to 9s2p1d pattern {111111111/11/1}

Atom   0C    basis set group =>   1
Atom   1C    basis set group =>   1
Atom   2C    basis set group =>   1
Atom   3C    basis set group =>   1
Atom   4C    basis set group =>   1
Atom   5C    basis set group =>   1
Atom   6H    basis set group =>   2
Atom   7H    basis set group =>   2
Atom   8H    basis set group =>   2
Atom   9H    basis set group =>   2
Atom  10H    basis set group =>   2
Atom  11H    basis set group =>   2
----------------------------------
AUXILIARY/JK BASIS SET INFORMATION
----------------------------------
There are 2 groups of distinct atoms

 Group   1 Type C   : 14s11p10d2f contracted to 14s11p10d2f pattern {11111111111111/11111111111/1111111111/11}
 Group   2 Type H   : 9s2p1d contracted to 9s2p1d pattern {111111111/11/1}

Atom   0C    basis set group =>   1
Atom   1C    basis set group =>   1
Atom   2C    basis set group =>   1
Atom   3C    basis set group =>   1
Atom   4C    basis set group =>   1
Atom   5C    basis set group =>   1
Atom   6H    basis set group =>   2
Atom   7H    basis set group =>   2
Atom   8H    basis set group =>   2
Atom   9H    basis set group =>   2
Atom  10H    basis set group =>   2
Atom  11H    basis set group =>   2

Checking for AutoStart:
The File: benzene_0_1_wb2plyp_def2-svp.tddft.gbw exists
Trying to determine its content:
     ... Fine, the file contains calculation information
     ... Fine, the calculation information was read
     ... Fine, the file contains a basis set
     ... Fine, the basis set was read
     ... Fine, the file contains a geometry
     ... Fine, the geometry was read
     ... Fine, the file contains a set of orbitals
     ... Fine, the orbitals can be read
     => possible old guess file was deleted
     => GBW file was renamed to GES file
     => GES file is set as startup file
     => Guess is set to MORead
     ... now leaving AutoStart



           ************************************************************
           *        Program running with 4 parallel MPI-processes     *
           *              working on a common directory               *
           ************************************************************
------------------------------------------------------------------------------
                           ORCA GTO INTEGRAL CALCULATION
------------------------------------------------------------------------------

                         BASIS SET STATISTICS AND STARTUP INFO

 # of primitive gaussian shells          ...  102
 # of primitive gaussian functions       ...  186
 # of contracted shells                  ...   54
 # of contracted basis functions         ...  114
 Highest angular momentum                ...    2
 Maximum contraction depth               ...    5
 Integral package used                   ... LIBINT
 Integral threshhold            Thresh   ...  2.500e-11
 Primitive cut-off              TCut     ...  2.500e-12


------------------------------ INTEGRAL EVALUATION ----------------------------


 * One electron integrals 
 Pre-screening matrix                    ... done
 Shell pair data                         ... done (   0.001 sec)



           ************************************************************
           *        Program running with 4 parallel MPI-processes     *
           *              working on a common directory               *
           ************************************************************
-------------------------------------------------------------------------------
                                 ORCA SCF
-------------------------------------------------------------------------------

------------
SCF SETTINGS
------------
Hamiltonian:
 Density Functional     Method          .... DFT(GTOs)
 Exchange Functional    Exchange        .... WB88
 Correlation Functional Correlation     .... LYP
 LDA part of GGA corr.  LDAOpt          .... VWN-3
 Gradients option       PostSCFGGA      .... off
 Hybrid DFT is turned on
   Fraction HF Exchange ScalHFX         ....  0.530000
   Scaling of DF-GGA-X  ScalDFX         ....  0.000000
   Scaling of DF-GGA-C  ScalDFC         ....  0.730000
   Scaling of DF-LDA-C  ScalLDAC        ....  0.730000
   Perturbative correction              ....  0.270000
   Density functional embedding theory  .... OFF
 Long-range corrected/Screened/Range-Separated Hybrid DFT is turned on
   Amount of maximum screened exact exchange              ....  0.470000
   Range separation parameter mu (erf(mu*r12)/r12)        ....  0.300000


General Settings:
 Integral files         IntName         .... benzene_0_1_wb2plyp_def2-svp.tddft
 Hartree-Fock type      HFTyp           .... UHF
 Total Charge           Charge          ....    0
 Multiplicity           Mult            ....    1
 Number of Electrons    NEL             ....   42
 Basis Dimension        Dim             ....  114
 Nuclear Repulsion      ENuc            ....    198.2429308724 Eh

Convergence Acceleration:
 DIIS                   CNVDIIS         .... on
   Start iteration      DIISMaxIt       ....    12
   Startup error        DIISStart       ....  0.200000
   # of expansion vecs  DIISMaxEq       ....     5
   Bias factor          DIISBfac        ....   1.050
   Max. coefficient     DIISMaxC        ....  10.000
 Newton-Raphson         CNVNR           .... off
 SOSCF                  CNVSOSCF        .... off
 Level Shifting         CNVShift        .... on
   Level shift para.    LevelShift      ....    0.2500
   Turn off err/grad.   ShiftErr        ....    0.0010
 Zerner damping         CNVZerner       .... off
 Static damping         CNVDamp         .... on
   Fraction old density DampFac         ....    0.7000
   Max. Damping (<1)    DampMax         ....    0.9800
   Min. Damping (>=0)   DampMin         ....    0.0000
   Turn off err/grad.   DampErr         ....    0.1000
 Fernandez-Rico         CNVRico         .... off

SCF Procedure:
 Maximum # iterations   MaxIter         ....   500
 SCF integral mode      SCFMode         .... Direct
   Integral package                     .... LIBINT
 Reset frequency        DirectResetFreq ....    20
 Integral Threshold     Thresh          ....  2.500e-11 Eh
 Primitive CutOff       TCut            ....  2.500e-12 Eh

Convergence Tolerance:
 Convergence Check Mode ConvCheckMode   .... Total+1el-Energy
 Convergence forced     ConvForced      .... 1
 Energy Change          TolE            ....  1.000e-08 Eh
 1-El. energy change                    ....  1.000e-05 Eh
 DIIS Error             TolErr          ....  5.000e-07


Diagonalization of the overlap matrix:
Smallest eigenvalue                        ... 4.171e-04
Time for diagonalization                   ...    0.003 sec
Threshold for overlap eigenvalues          ... 1.000e-08
Number of eigenvalues below threshold      ... 0
Time for construction of square roots      ...    0.004 sec
Total time needed                          ...    0.007 sec

---------------------
INITIAL GUESS: MOREAD
---------------------
Guess MOs are being read from file: benzene_0_1_wb2plyp_def2-svp.tddft.ges
Input geometry compatible with but different from current geometry
Input basis set matches current basis set (good)
MOs were renormalized
MOs were reorthogonalized (Cholesky)
                      ------------------
                      INITIAL GUESS DONE (   0.0 sec)
                      ------------------
-------------------
DFT GRID GENERATION
-------------------

General Integration Accuracy     IntAcc      ...  4.340
Radial Grid Type                 RadialGrid  ... Gauss-Chebyshev
Angular Grid (max. acc.)         AngularGrid ... Lebedev-110
Angular grid pruning method      GridPruning ... 3 (G Style)
Weight generation scheme         WeightScheme... Becke
Basis function cutoff            BFCut       ...    1.0000e-11
Integration weight cutoff        WCut        ...    1.0000e-14
Grids for H and He will be reduced by one unit

# of grid points (after initial pruning)     ...  14700 (   0.0 sec)
# of grid points (after weights+screening)   ...  13818 (   0.0 sec)
nearest neighbour list constructed           ...    0.0 sec
Grid point re-assignment to atoms done       ...    0.0 sec
Grid point division into batches done        ...    0.0 sec
Reduced shell lists constructed in    0.0 sec

Total number of grid points                  ...    13818
Total number of batches                      ...      220
Average number of points per batch           ...       62
Average number of grid points per atom       ...     1152
Average number of shells per batch           ...    48.05 (88.99%)
Average number of basis functions per batch  ...   103.88 (91.12%)
Average number of large shells per batch     ...    42.48 (88.41%)
Average number of large basis fcns per batch ...    91.34 (87.93%)
Maximum spatial batch extension              ...   3.59,  3.81, 22.58 au
Average spatial batch extension              ...   0.49,  0.49,  1.15 au

Time for grid setup =    0.058 sec

--------------
SCF ITERATIONS
--------------
               ***  Starting incremental Fock matrix formation  ***

                         ----------------------------
                         !        ITERATION     0   !
                         ----------------------------
   Total Energy        :    -231.288368811753 Eh
   Energy Change       :    -231.288368811753 Eh
   MAX-DP              :       0.002898189597
   RMS-DP              :       0.000135730557
   Actual Damping      :       0.7000
   Actual Level Shift  :       0.2500 Eh
   Int. Num. El.       :    42.00261971 (UP=   21.00130986 DN=   21.00130986)
   Exchange            :   -12.21255554
   Correlation         :    -1.00584836


                         ----------------------------
                         !        ITERATION     1   !
                         ----------------------------
   Total Energy        :    -231.289038101338 Eh
   Energy Change       :      -0.000669289585 Eh
   MAX-DP              :       0.002685867662
   RMS-DP              :       0.000104927145
   Actual Damping      :       0.7000
   Actual Level Shift  :       0.2500 Eh
   Int. Num. El.       :    42.00261515 (UP=   21.00130757 DN=   21.00130757)
   Exchange            :   -12.21245531
   Correlation         :    -1.00583419

                               ***Turning on DIIS***

                         ----------------------------
                         !        ITERATION     2   !
                         ----------------------------
   Total Energy        :    -231.289615693127 Eh
   Energy Change       :      -0.000577591789 Eh
   MAX-DP              :       0.007255070453
   RMS-DP              :       0.000254656547
   Actual Damping      :       0.0000
   Actual Level Shift  :       0.2500 Eh
   Int. Num. El.       :    42.00261087 (UP=   21.00130544 DN=   21.00130544)
   Exchange            :   -12.21240907
   Correlation         :    -1.00582460
   DIIS-Error          :       0.015904407936


                         ----------------------------
                         !        ITERATION     3   !
                         ----------------------------
   Total Energy        :    -231.291380391006 Eh
   Energy Change       :      -0.001764697879 Eh
   MAX-DP              :       0.002404283492
   RMS-DP              :       0.000087170024
   Actual Damping      :       0.0000
   Actual Level Shift  :       0.2500 Eh
   Int. Num. El.       :    42.00259906 (UP=   21.00129953 DN=   21.00129953)
   Exchange            :   -12.21242711
   Correlation         :    -1.00580874
   DIIS-Error          :       0.005888204047
   DIIS coefficients:
     -0.38346   1.38346


                         ----------------------------
                         !        ITERATION     4   !
                         ----------------------------
   Total Energy        :    -231.291583150681 Eh
   Energy Change       :      -0.000202759675 Eh
   MAX-DP              :       0.000782924220
   RMS-DP              :       0.000049344728
   Actual Damping      :       0.0000
   Actual Level Shift  :       0.2500 Eh
   Int. Num. El.       :    42.00259504 (UP=   21.00129752 DN=   21.00129752)
   Exchange            :   -12.21272808
   Correlation         :    -1.00582884
   DIIS-Error          :       0.001966677730
   DIIS coefficients:
     -0.02124  -0.36143   1.38267


                         ----------------------------
                         !        ITERATION     5   !
                         ----------------------------
   Total Energy        :    -231.291620388280 Eh
   Energy Change       :      -0.000037237599 Eh
   MAX-DP              :       0.000445753068
   RMS-DP              :       0.000030118904
   Actual Damping      :       0.0000
   Actual Level Shift  :       0.0000 Eh
   Int. Num. El.       :    42.00259421 (UP=   21.00129710 DN=   21.00129710)
   Exchange            :   -12.21255381
   Correlation         :    -1.00581672
   DIIS-Error          :       0.000613281366
   DIIS coefficients:
      0.03344  -0.19881  -0.08218   1.24755


                         ----------------------------
                         !        ITERATION     6   !
                         ----------------------------
   Total Energy        :    -231.291629238625 Eh
   Energy Change       :      -0.000008850345 Eh
   MAX-DP              :       0.000102970562
   RMS-DP              :       0.000006150311
   Actual Damping      :       0.0000
   Actual Level Shift  :       0.0000 Eh
   Int. Num. El.       :    42.00259365 (UP=   21.00129683 DN=   21.00129683)
   Exchange            :   -12.21266341
   Correlation         :    -1.00582457
   DIIS-Error          :       0.000137894063
   DIIS coefficients:
      0.00119   0.03059  -0.18926   0.16105   0.99643


                         ----------------------------
                         !        ITERATION     7   !
                         ----------------------------
   Total Energy        :    -231.291629749053 Eh
   Energy Change       :      -0.000000510428 Eh
   MAX-DP              :       0.000035388421
   RMS-DP              :       0.000001776483
   Actual Damping      :       0.0000
   Actual Level Shift  :       0.0000 Eh
   Int. Num. El.       :    42.00259354 (UP=   21.00129677 DN=   21.00129677)
   Exchange            :   -12.21262950
   Correlation         :    -1.00582223
   DIIS-Error          :       0.000046508072
   DIIS coefficients:
      0.95131   0.00618   0.00522  -0.09420   0.13148


                         ----------------------------
                         !        ITERATION     8   !
                         ----------------------------
   Total Energy        :    -231.291629810144 Eh
   Energy Change       :      -0.000000061091 Eh
   MAX-DP              :       0.000012175985
   RMS-DP              :       0.000000520853
   Actual Damping      :       0.0000
   Actual Level Shift  :       0.0000 Eh
   Int. Num. El.       :    42.00259373 (UP=   21.00129686 DN=   21.00129686)
   Exchange            :   -12.21262024
   Correlation         :    -1.00582156
   DIIS-Error          :       0.000012268870
   DIIS coefficients:
      0.14254   0.91738   0.00883  -0.02276  -0.04599


                         ----------------------------
                         !        ITERATION     9   !
                         ----------------------------
   Total Energy        :    -231.291629812360 Eh
   Energy Change       :      -0.000000002216 Eh
   MAX-DP              :       0.000003811339
   RMS-DP              :       0.000000153980
   Actual Damping      :       0.0000
   Actual Level Shift  :       0.0000 Eh
   Int. Num. El.       :    42.00259366 (UP=   21.00129683 DN=   21.00129683)
   Exchange            :   -12.21263070
   Correlation         :    -1.00582229
   DIIS-Error          :       0.000003865774
   DIIS coefficients:
     -0.04768   0.16203   0.90028   0.00324  -0.01787

                            ***DIIS convergence achieved***

               *****************************************************
               *                     SUCCESS                       *
               *           SCF CONVERGED AFTER  10 CYCLES          *
               *****************************************************

Setting up the final grid:

General Integration Accuracy     IntAcc      ...  4.670
Radial Grid Type                 RadialGrid  ... Gauss-Chebyshev
Angular Grid (max. acc.)         AngularGrid ... Lebedev-302
Angular grid pruning method      GridPruning ... 3 (G Style)
Weight generation scheme         WeightScheme... Becke
Basis function cutoff            BFCut       ...    1.0000e-11
Integration weight cutoff        WCut        ...    1.0000e-14
Grids for H and He will be reduced by one unit

# of grid points (after initial pruning)     ...  57636 (   0.0 sec)
# of grid points (after weights+screening)   ...  53529 (   0.0 sec)
nearest neighbour list constructed           ...    0.0 sec
Grid point re-assignment to atoms done       ...    0.0 sec
Grid point division into batches done        ...    0.2 sec
Reduced shell lists constructed in    0.3 sec

Total number of grid points                  ...    53529
Total number of batches                      ...      842
Average number of points per batch           ...       63
Average number of grid points per atom       ...     4461
Average number of shells per batch           ...    47.05 (87.12%)
Average number of basis functions per batch  ...   101.32 (88.88%)
Average number of large shells per batch     ...    40.36 (85.78%)
Average number of large basis fcns per batch ...    85.77 (84.66%)
Maximum spatial batch extension              ...   3.78,  3.94, 23.05 au
Average spatial batch extension              ...   0.34,  0.33,  0.51 au

Final grid set up in    0.4 sec
Final integration                            ... done (   0.2 sec)
Change in XC energy                          ...    -0.000369298
Integrated number of electrons               ...    42.000006319
Previous integrated no of electrons          ...    42.002593684

----------------
TOTAL SCF ENERGY
----------------

Total Energy       :         -231.29199909 Eh           -6293.77526 eV

Components:
Nuclear Repulsion  :          198.24293087 Eh            5394.46440 eV
Electronic Energy  :         -429.53492997 Eh          -11688.23966 eV
One Electron Energy:         -703.10204901 Eh          -19132.37942 eV
Two Electron Energy:          273.56711905 Eh            7444.13976 eV

Virial components:
Potential Energy   :         -459.85883397 Eh          -12513.39504 eV
Kinetic Energy     :          228.56683488 Eh            6219.61978 eV
Virial Ratio       :            2.01192283


DFT components:
N(Alpha)           :       21.000003159389 electrons
N(Beta)            :       21.000003159389 electrons
N(Total)           :       42.000006318778 electrons
E(X)               :      -12.212906488992 Eh       
E(C)               :       -1.005912285665 Eh       
E(XC)              :      -13.218818774657 Eh       
DFET-embed. en.    :        0.000000000000 Eh       

---------------
SCF CONVERGENCE
---------------

  Last Energy change         ...    1.7304e-08  Tolerance :   1.0000e-08
  Last MAX-Density change    ...    7.1295e-07  Tolerance :   1.0000e-07
  Last RMS-Density change    ...    3.4501e-08  Tolerance :   5.0000e-09
  Last DIIS Error            ...    8.2564e-07  Tolerance :   5.0000e-07

             **** THE GBW FILE WAS UPDATED (benzene_0_1_wb2plyp_def2-svp.tddft.gbw) ****
             **** DENSITY FILE WAS UPDATED (benzene_0_1_wb2plyp_def2-svp.tddft.scfp) ****
             **** ENERGY FILE WAS UPDATED (benzene_0_1_wb2plyp_def2-svp.tddft.en.tmp) ****
----------------------
UHF SPIN CONTAMINATION
----------------------

Warning: in a DFT calculation there is little theoretical justification to 
         calculate <S**2> as in Hartree-Fock theory. We will do it anyways
         but you should keep in mind that the values have only limited relevance

Expectation value of <S**2>     :     0.000000
Ideal value S*(S+1) for S=0.0   :     0.000000
Deviation                       :     0.000000

             **** THE GBW FILE WAS UPDATED (benzene_0_1_wb2plyp_def2-svp.tddft.gbw) ****
             **** DENSITY FILE WAS UPDATED (benzene_0_1_wb2plyp_def2-svp.tddft.scfp) ****
----------------
ORBITAL ENERGIES
----------------
                 SPIN UP ORBITALS
  NO   OCC          E(Eh)            E(eV) 
   0   1.0000     -10.711809      -291.4831 
   1   1.0000     -10.711618      -291.4779 
   2   1.0000     -10.711569      -291.4766 
   3   1.0000     -10.711060      -291.4628 
   4   1.0000     -10.711011      -291.4614 
   5   1.0000     -10.710826      -291.4564 
   6   1.0000      -1.030978       -28.0543 
   7   1.0000      -0.917872       -24.9766 
   8   1.0000      -0.917740       -24.9730 
   9   1.0000      -0.758325       -20.6351 
  10   1.0000      -0.758130       -20.6298 
  11   1.0000      -0.662487       -18.0272 
  12   1.0000      -0.608121       -16.5478 
  13   1.0000      -0.577712       -15.7203 
  14   1.0000      -0.554975       -15.1016 
  15   1.0000      -0.554899       -15.0996 
  16   1.0000      -0.482119       -13.1191 
  17   1.0000      -0.472430       -12.8555 
  18   1.0000      -0.472296       -12.8518 
  19   1.0000      -0.341181        -9.2840 
  20   1.0000      -0.341091        -9.2816 
  21   0.0000       0.086209         2.3459 
  22   0.0000       0.086327         2.3491 
  23   0.0000       0.152581         4.1519 
  24   0.0000       0.191994         5.2244 
  25   0.0000       0.192509         5.2384 
  26   0.0000       0.225913         6.1474 
  27   0.0000       0.226040         6.1509 
  28   0.0000       0.246349         6.7035 
  29   0.0000       0.271113         7.3774 
  30   0.0000       0.388772        10.5790 
  31   0.0000       0.389320        10.5939 
  32   0.0000       0.404272        11.0008 
  33   0.0000       0.404387        11.0039 
  34   0.0000       0.487799        13.2737 
  35   0.0000       0.540964        14.7204 
  36   0.0000       0.548137        14.9156 
  37   0.0000       0.548317        14.9205 
  38   0.0000       0.554151        15.0792 
  39   0.0000       0.574762        15.6401 
  40   0.0000       0.617678        16.8079 
  41   0.0000       0.644796        17.5458 
  42   0.0000       0.644995        17.5512 
  43   0.0000       0.652711        17.7612 
  44   0.0000       0.688139        18.7252 
  45   0.0000       0.688155        18.7256 
  46   0.0000       0.751078        20.4379 
  47   0.0000       0.751480        20.4488 
  48   0.0000       0.785825        21.3834 
  49   0.0000       0.786250        21.3949 
  50   0.0000       0.815287        22.1851 
  51   0.0000       0.815502        22.1909 
  52   0.0000       0.820311        22.3218 
  53   0.0000       0.861169        23.4336 
  54   0.0000       0.861615        23.4457 
  55   0.0000       0.880427        23.9576 
  56   0.0000       0.884548        24.0698 
  57   0.0000       0.917533        24.9673 
  58   0.0000       0.917861        24.9763 
  59   0.0000       0.959714        26.1151 
  60   0.0000       1.033227        28.1155 
  61   0.0000       1.160879        31.5891 
  62   0.0000       1.161271        31.5998 
  63   0.0000       1.329634        36.1812 
  64   0.0000       1.408969        38.3400 
  65   0.0000       1.409194        38.3461 
  66   0.0000       1.410407        38.3791 
  67   0.0000       1.410512        38.3820 
  68   0.0000       1.426113        38.8065 
  69   0.0000       1.472114        40.0583 
  70   0.0000       1.472188        40.0603 
  71   0.0000       1.658093        45.1190 
  72   0.0000       1.792812        48.7849 
  73   0.0000       1.826027        49.6887 
  74   0.0000       1.842310        50.1318 
  75   0.0000       1.899705        51.6936 
  76   0.0000       1.902179        51.7609 
  77   0.0000       1.902981        51.7827 
  78   0.0000       1.926798        52.4308 
  79   0.0000       1.927111        52.4393 
  80   0.0000       1.933286        52.6074 
  81   0.0000       1.933757        52.6202 
  82   0.0000       1.976950        53.7956 
  83   0.0000       1.977782        53.8182 
  84   0.0000       2.127768        57.8995 
  85   0.0000       2.152217        58.5648 
  86   0.0000       2.158002        58.7222 
  87   0.0000       2.158248        58.7289 
  88   0.0000       2.170041        59.0498 
  89   0.0000       2.170461        59.0612 
  90   0.0000       2.286853        62.2284 
  91   0.0000       2.311729        62.9053 
  92   0.0000       2.311866        62.9091 
  93   0.0000       2.314345        62.9765 
  94   0.0000       2.469563        67.2002 
  95   0.0000       2.470087        67.2145 
  96   0.0000       2.482304        67.5469 
  97   0.0000       2.482493        67.5521 
  98   0.0000       2.527236        68.7696 
  99   0.0000       2.527475        68.7761 
 100   0.0000       2.715388        73.8895 
 101   0.0000       2.763157        75.1893 
 102   0.0000       2.763501        75.1987 
 103   0.0000       2.782222        75.7081 
 104   0.0000       2.931040        79.7577 
 105   0.0000       2.931647        79.7742 
 106   0.0000       2.932753        79.8043 
 107   0.0000       3.027574        82.3845 
 108   0.0000       3.027745        82.3891 
 109   0.0000       3.050517        83.0088 
 110   0.0000       3.289894        89.5226 
 111   0.0000       3.290086        89.5278 
 112   0.0000       3.403978        92.6269 
 113   0.0000       3.773980       102.6952 

                 SPIN DOWN ORBITALS
  NO   OCC          E(Eh)            E(eV) 
   0   1.0000     -10.711809      -291.4831 
   1   1.0000     -10.711618      -291.4779 
   2   1.0000     -10.711569      -291.4766 
   3   1.0000     -10.711060      -291.4628 
   4   1.0000     -10.711011      -291.4614 
   5   1.0000     -10.710826      -291.4564 
   6   1.0000      -1.030978       -28.0543 
   7   1.0000      -0.917872       -24.9766 
   8   1.0000      -0.917740       -24.9730 
   9   1.0000      -0.758325       -20.6351 
  10   1.0000      -0.758130       -20.6298 
  11   1.0000      -0.662487       -18.0272 
  12   1.0000      -0.608121       -16.5478 
  13   1.0000      -0.577712       -15.7203 
  14   1.0000      -0.554975       -15.1016 
  15   1.0000      -0.554899       -15.0996 
  16   1.0000      -0.482119       -13.1191 
  17   1.0000      -0.472430       -12.8555 
  18   1.0000      -0.472296       -12.8518 
  19   1.0000      -0.341181        -9.2840 
  20   1.0000      -0.341091        -9.2816 
  21   0.0000       0.086209         2.3459 
  22   0.0000       0.086327         2.3491 
  23   0.0000       0.152581         4.1519 
  24   0.0000       0.191994         5.2244 
  25   0.0000       0.192509         5.2384 
  26   0.0000       0.225913         6.1474 
  27   0.0000       0.226040         6.1509 
  28   0.0000       0.246349         6.7035 
  29   0.0000       0.271113         7.3774 
  30   0.0000       0.388772        10.5790 
  31   0.0000       0.389320        10.5939 
  32   0.0000       0.404272        11.0008 
  33   0.0000       0.404387        11.0039 
  34   0.0000       0.487799        13.2737 
  35   0.0000       0.540964        14.7204 
  36   0.0000       0.548137        14.9156 
  37   0.0000       0.548317        14.9205 
  38   0.0000       0.554151        15.0792 
  39   0.0000       0.574762        15.6401 
  40   0.0000       0.617678        16.8079 
  41   0.0000       0.644796        17.5458 
  42   0.0000       0.644995        17.5512 
  43   0.0000       0.652711        17.7612 
  44   0.0000       0.688139        18.7252 
  45   0.0000       0.688155        18.7256 
  46   0.0000       0.751078        20.4379 
  47   0.0000       0.751480        20.4488 
  48   0.0000       0.785825        21.3834 
  49   0.0000       0.786250        21.3949 
  50   0.0000       0.815287        22.1851 
  51   0.0000       0.815502        22.1909 
  52   0.0000       0.820311        22.3218 
  53   0.0000       0.861169        23.4336 
  54   0.0000       0.861615        23.4457 
  55   0.0000       0.880427        23.9576 
  56   0.0000       0.884548        24.0698 
  57   0.0000       0.917533        24.9673 
  58   0.0000       0.917861        24.9763 
  59   0.0000       0.959714        26.1151 
  60   0.0000       1.033227        28.1155 
  61   0.0000       1.160879        31.5891 
  62   0.0000       1.161271        31.5998 
  63   0.0000       1.329634        36.1812 
  64   0.0000       1.408969        38.3400 
  65   0.0000       1.409194        38.3461 
  66   0.0000       1.410407        38.3791 
  67   0.0000       1.410512        38.3820 
  68   0.0000       1.426113        38.8065 
  69   0.0000       1.472114        40.0583 
  70   0.0000       1.472188        40.0603 
  71   0.0000       1.658093        45.1190 
  72   0.0000       1.792812        48.7849 
  73   0.0000       1.826027        49.6887 
  74   0.0000       1.842310        50.1318 
  75   0.0000       1.899705        51.6936 
  76   0.0000       1.902179        51.7609 
  77   0.0000       1.902981        51.7827 
  78   0.0000       1.926798        52.4308 
  79   0.0000       1.927111        52.4393 
  80   0.0000       1.933286        52.6074 
  81   0.0000       1.933757        52.6202 
  82   0.0000       1.976950        53.7956 
  83   0.0000       1.977782        53.8182 
  84   0.0000       2.127768        57.8995 
  85   0.0000       2.152217        58.5648 
  86   0.0000       2.158002        58.7222 
  87   0.0000       2.158248        58.7289 
  88   0.0000       2.170041        59.0498 
  89   0.0000       2.170461        59.0612 
  90   0.0000       2.286853        62.2284 
  91   0.0000       2.311729        62.9053 
  92   0.0000       2.311866        62.9091 
  93   0.0000       2.314345        62.9765 
  94   0.0000       2.469563        67.2002 
  95   0.0000       2.470087        67.2145 
  96   0.0000       2.482304        67.5469 
  97   0.0000       2.482493        67.5521 
  98   0.0000       2.527236        68.7696 
  99   0.0000       2.527475        68.7761 
 100   0.0000       2.715388        73.8895 
 101   0.0000       2.763157        75.1893 
 102   0.0000       2.763501        75.1987 
 103   0.0000       2.782222        75.7081 
 104   0.0000       2.931040        79.7577 
 105   0.0000       2.931647        79.7742 
 106   0.0000       2.932753        79.8043 
 107   0.0000       3.027574        82.3845 
 108   0.0000       3.027745        82.3891 
 109   0.0000       3.050517        83.0088 
 110   0.0000       3.289894        89.5226 
 111   0.0000       3.290086        89.5278 
 112   0.0000       3.403978        92.6269 
 113   0.0000       3.773980       102.6952 

                    ********************************
                    * MULLIKEN POPULATION ANALYSIS *
                    ********************************

--------------------------------------------
MULLIKEN ATOMIC CHARGES AND SPIN POPULATIONS
--------------------------------------------
   0 C :   -0.030386    0.000000
   1 C :   -0.030306    0.000000
   2 C :   -0.030487    0.000000
   3 C :   -0.030381    0.000000
   4 C :   -0.030303    0.000000
   5 C :   -0.030486    0.000000
   6 H :    0.030379    0.000000
   7 H :    0.030164    0.000000
   8 H :    0.030632    0.000000
   9 H :    0.030378    0.000000
  10 H :    0.030164    0.000000
  11 H :    0.030633    0.000000
Sum of atomic charges         :   -0.0000000
Sum of atomic spin populations:    0.0000000

-----------------------------------------------------
MULLIKEN REDUCED ORBITAL CHARGES AND SPIN POPULATIONS
-----------------------------------------------------
CHARGE
  0 C s       :     3.146225  s :     3.146225
      pz      :     0.987210  p :     2.848914
      px      :     0.909579
      py      :     0.952125
      dz2     :     0.002941  d :     0.035247
      dxz     :     0.002435
      dyz     :     0.006119
      dx2y2   :     0.012641
      dxy     :     0.011111
  1 C s       :     3.147344  s :     3.147344
      pz      :     0.987382  p :     2.847712
      px      :     0.946716
      py      :     0.913614
      dz2     :     0.002943  d :     0.035250
      dxz     :     0.005713
      dyz     :     0.002842
      dx2y2   :     0.011968
      dxy     :     0.011783
  2 C s       :     3.146656  s :     3.146656
      pz      :     0.987430  p :     2.848592
      px      :     0.935421
      py      :     0.925741
      dz2     :     0.002944  d :     0.035239
      dxz     :     0.004680
      dyz     :     0.003865
      dx2y2   :     0.011012
      dxy     :     0.012737
  3 C s       :     3.146225  s :     3.146225
      pz      :     0.987209  p :     2.848910
      px      :     0.909575
      py      :     0.952126
      dz2     :     0.002941  d :     0.035247
      dxz     :     0.002435
      dyz     :     0.006119
      dx2y2   :     0.012641
      dxy     :     0.011111
  4 C s       :     3.147344  s :     3.147344
      pz      :     0.987380  p :     2.847709
      px      :     0.946716
      py      :     0.913613
      dz2     :     0.002943  d :     0.035250
      dxz     :     0.005713
      dyz     :     0.002843
      dx2y2   :     0.011968
      dxy     :     0.011783
  5 C s       :     3.146656  s :     3.146656
      pz      :     0.987432  p :     2.848591
      px      :     0.935422
      py      :     0.925737
      dz2     :     0.002944  d :     0.035239
      dxz     :     0.004680
      dyz     :     0.003866
      dx2y2   :     0.011012
      dxy     :     0.012737
  6 H s       :     0.946547  s :     0.946547
      pz      :     0.004099  p :     0.023074
      px      :     0.016140
      py      :     0.002835
  7 H s       :     0.946747  s :     0.946747
      pz      :     0.004105  p :     0.023089
      px      :     0.004312
      py      :     0.014673
  8 H s       :     0.946288  s :     0.946288
      pz      :     0.004108  p :     0.023080
      px      :     0.008019
      py      :     0.010953
  9 H s       :     0.946548  s :     0.946548
      pz      :     0.004099  p :     0.023074
      px      :     0.016140
      py      :     0.002835
 10 H s       :     0.946747  s :     0.946747
      pz      :     0.004105  p :     0.023089
      px      :     0.004312
      py      :     0.014673
 11 H s       :     0.946287  s :     0.946287
      pz      :     0.004108  p :     0.023080
      px      :     0.008018
      py      :     0.010954

SPIN
  0 C s       :     0.000000  s :     0.000000
      pz      :     0.000000  p :     0.000000
      px      :     0.000000
      py      :     0.000000
      dz2     :     0.000000  d :     0.000000
      dxz     :     0.000000
      dyz     :     0.000000
      dx2y2   :     0.000000
      dxy     :     0.000000
  1 C s       :     0.000000  s :     0.000000
      pz      :     0.000000  p :     0.000000
      px      :     0.000000
      py      :     0.000000
      dz2     :     0.000000  d :     0.000000
      dxz     :     0.000000
      dyz     :     0.000000
      dx2y2   :     0.000000
      dxy     :     0.000000
  2 C s       :     0.000000  s :     0.000000
      pz      :     0.000000  p :     0.000000
      px      :     0.000000
      py      :     0.000000
      dz2     :     0.000000  d :     0.000000
      dxz     :     0.000000
      dyz     :     0.000000
      dx2y2   :     0.000000
      dxy     :     0.000000
  3 C s       :     0.000000  s :     0.000000
      pz      :     0.000000  p :     0.000000
      px      :     0.000000
      py      :     0.000000
      dz2     :     0.000000  d :     0.000000
      dxz     :     0.000000
      dyz     :     0.000000
      dx2y2   :     0.000000
      dxy     :     0.000000
  4 C s       :     0.000000  s :     0.000000
      pz      :     0.000000  p :     0.000000
      px      :     0.000000
      py      :     0.000000
      dz2     :     0.000000  d :     0.000000
      dxz     :     0.000000
      dyz     :     0.000000
      dx2y2   :     0.000000
      dxy     :     0.000000
  5 C s       :     0.000000  s :     0.000000
      pz      :     0.000000  p :     0.000000
      px      :     0.000000
      py      :     0.000000
      dz2     :     0.000000  d :     0.000000
      dxz     :     0.000000
      dyz     :     0.000000
      dx2y2   :     0.000000
      dxy     :     0.000000
  6 H s       :     0.000000  s :     0.000000
      pz      :     0.000000  p :     0.000000
      px      :     0.000000
      py      :     0.000000
  7 H s       :     0.000000  s :     0.000000
      pz      :     0.000000  p :     0.000000
      px      :     0.000000
      py      :     0.000000
  8 H s       :     0.000000  s :     0.000000
      pz      :     0.000000  p :     0.000000
      px      :     0.000000
      py      :     0.000000
  9 H s       :     0.000000  s :     0.000000
      pz      :     0.000000  p :     0.000000
      px      :     0.000000
      py      :     0.000000
 10 H s       :     0.000000  s :     0.000000
      pz      :     0.000000  p :     0.000000
      px      :     0.000000
      py      :     0.000000
 11 H s       :     0.000000  s :     0.000000
      pz      :     0.000000  p :     0.000000
      px      :     0.000000
      py      :     0.000000

------------------------
MULLIKEN OVERLAP CHARGES
------------------------
B(  0-C ,  1-C ) :   0.8443 B(  0-C ,  3-C ) :  -0.1464 B(  0-C ,  5-C ) :   0.8426 
B(  0-C ,  6-H ) :   0.8674 B(  0-C ,  7-H ) :  -0.1003 B(  0-C , 11-H ) :  -0.1000 
B(  1-C ,  2-C ) :   0.8437 B(  1-C ,  4-C ) :  -0.1466 B(  1-C ,  6-H ) :  -0.0997 
B(  1-C ,  7-H ) :   0.8680 B(  1-C ,  8-H ) :  -0.1000 B(  2-C ,  3-C ) :   0.8427 
B(  2-C ,  5-C ) :  -0.1465 B(  2-C ,  7-H ) :  -0.1007 B(  2-C ,  8-H ) :   0.8674 
B(  2-C ,  9-H ) :  -0.1004 B(  3-C ,  4-C ) :   0.8443 B(  3-C ,  8-H ) :  -0.1000 
B(  3-C ,  9-H ) :   0.8674 B(  3-C , 10-H ) :  -0.1003 B(  4-C ,  5-C ) :   0.8437 
B(  4-C ,  9-H ) :  -0.0997 B(  4-C , 10-H ) :   0.8680 B(  4-C , 11-H ) :  -0.1000 
B(  5-C ,  6-H ) :  -0.1004 B(  5-C , 10-H ) :  -0.1007 B(  5-C , 11-H ) :   0.8674 



                     *******************************
                     * LOEWDIN POPULATION ANALYSIS *
                     *******************************

-------------------------------------------
LOEWDIN ATOMIC CHARGES AND SPIN POPULATIONS
-------------------------------------------
   0 C :   -0.031495    0.000000
   1 C :   -0.031419    0.000000
   2 C :   -0.031600    0.000000
   3 C :   -0.031492    0.000000
   4 C :   -0.031417    0.000000
   5 C :   -0.031602    0.000000
   6 H :    0.031522    0.000000
   7 H :    0.031447    0.000000
   8 H :    0.031543    0.000000
   9 H :    0.031522    0.000000
  10 H :    0.031447    0.000000
  11 H :    0.031543    0.000000

----------------------------------------------------
LOEWDIN REDUCED ORBITAL CHARGES AND SPIN POPULATIONS
----------------------------------------------------
CHARGE
  0 C s       :     2.875436  s :     2.875436
      pz      :     0.970277  p :     3.072569
      px      :     1.044800
      py      :     1.057492
      dz2     :     0.005876  d :     0.083490
      dxz     :     0.003941
      dyz     :     0.012038
      dx2y2   :     0.032430
      dxy     :     0.029205
  1 C s       :     2.875387  s :     2.875387
      pz      :     0.970362  p :     3.072509
      px      :     1.055953
      py      :     1.046194
      dz2     :     0.005877  d :     0.083523
      dxz     :     0.011146
      dyz     :     0.004837
      dx2y2   :     0.031030
      dxy     :     0.030633
  2 C s       :     2.875430  s :     2.875430
      pz      :     0.970444  p :     3.072719
      px      :     1.052577
      py      :     1.049698
      dz2     :     0.005875  d :     0.083452
      dxz     :     0.008877
      dyz     :     0.007085
      dx2y2   :     0.028994
      dxy     :     0.032621
  3 C s       :     2.875435  s :     2.875435
      pz      :     0.970275  p :     3.072567
      px      :     1.044800
      py      :     1.057492
      dz2     :     0.005876  d :     0.083490
      dxz     :     0.003941
      dyz     :     0.012038
      dx2y2   :     0.032430
      dxy     :     0.029205
  4 C s       :     2.875387  s :     2.875387
      pz      :     0.970360  p :     3.072507
      px      :     1.055952
      py      :     1.046195
      dz2     :     0.005877  d :     0.083523
      dxz     :     0.011146
      dyz     :     0.004837
      dx2y2   :     0.031030
      dxy     :     0.030633
  5 C s       :     2.875430  s :     2.875430
      pz      :     0.970446  p :     3.072720
      px      :     1.052577
      py      :     1.049698
      dz2     :     0.005875  d :     0.083452
      dxz     :     0.008877
      dyz     :     0.007086
      dx2y2   :     0.028994
      dxy     :     0.032621
  6 H s       :     0.901341  s :     0.901341
      pz      :     0.013659  p :     0.067137
      px      :     0.042492
      py      :     0.010987
  7 H s       :     0.901361  s :     0.901361
      pz      :     0.013683  p :     0.067192
      px      :     0.014480
      py      :     0.039029
  8 H s       :     0.901228  s :     0.901228
      pz      :     0.013694  p :     0.067229
      px      :     0.023271
      py      :     0.030264
  9 H s       :     0.901341  s :     0.901341
      pz      :     0.013659  p :     0.067137
      px      :     0.042492
      py      :     0.010986
 10 H s       :     0.901361  s :     0.901361
      pz      :     0.013683  p :     0.067192
      px      :     0.014479
      py      :     0.039029
 11 H s       :     0.901228  s :     0.901228
      pz      :     0.013694  p :     0.067229
      px      :     0.023270
      py      :     0.030264

SPIN
  0 C s       :     0.000000  s :     0.000000
      pz      :     0.000000  p :     0.000000
      px      :     0.000000
      py      :     0.000000
      dz2     :     0.000000  d :     0.000000
      dxz     :     0.000000
      dyz     :     0.000000
      dx2y2   :     0.000000
      dxy     :     0.000000
  1 C s       :     0.000000  s :     0.000000
      pz      :     0.000000  p :     0.000000
      px      :     0.000000
      py      :     0.000000
      dz2     :     0.000000  d :     0.000000
      dxz     :     0.000000
      dyz     :     0.000000
      dx2y2   :     0.000000
      dxy     :     0.000000
  2 C s       :     0.000000  s :     0.000000
      pz      :     0.000000  p :     0.000000
      px      :     0.000000
      py      :     0.000000
      dz2     :     0.000000  d :     0.000000
      dxz     :     0.000000
      dyz     :     0.000000
      dx2y2   :     0.000000
      dxy     :     0.000000
  3 C s       :     0.000000  s :     0.000000
      pz      :     0.000000  p :     0.000000
      px      :     0.000000
      py      :     0.000000
      dz2     :     0.000000  d :     0.000000
      dxz     :     0.000000
      dyz     :     0.000000
      dx2y2   :     0.000000
      dxy     :     0.000000
  4 C s       :     0.000000  s :     0.000000
      pz      :     0.000000  p :     0.000000
      px      :     0.000000
      py      :     0.000000
      dz2     :     0.000000  d :     0.000000
      dxz     :     0.000000
      dyz     :     0.000000
      dx2y2   :     0.000000
      dxy     :     0.000000
  5 C s       :     0.000000  s :     0.000000
      pz      :     0.000000  p :     0.000000
      px      :     0.000000
      py      :     0.000000
      dz2     :     0.000000  d :     0.000000
      dxz     :     0.000000
      dyz     :     0.000000
      dx2y2   :     0.000000
      dxy     :     0.000000
  6 H s       :     0.000000  s :     0.000000
      pz      :     0.000000  p :     0.000000
      px      :     0.000000
      py      :     0.000000
  7 H s       :     0.000000  s :     0.000000
      pz      :     0.000000  p :     0.000000
      px      :     0.000000
      py      :     0.000000
  8 H s       :     0.000000  s :     0.000000
      pz      :     0.000000  p :     0.000000
      px      :     0.000000
      py      :     0.000000
  9 H s       :     0.000000  s :     0.000000
      pz      :     0.000000  p :     0.000000
      px      :     0.000000
      py      :     0.000000
 10 H s       :     0.000000  s :     0.000000
      pz      :     0.000000  p :     0.000000
      px      :     0.000000
      py      :     0.000000
 11 H s       :     0.000000  s :     0.000000
      pz      :     0.000000  p :     0.000000
      px      :     0.000000
      py      :     0.000000

---------------------------------
LOEWDIN BOND ORDERS (THRESH 0.050000)
---------------------------------
B(  0-C ,  1-C ) :   1.4648 B(  0-C ,  2-C ) :   0.0724 B(  0-C ,  3-C ) :   0.1131 
B(  0-C ,  4-C ) :   0.0724 B(  0-C ,  5-C ) :   1.4644 B(  0-C ,  6-H ) :   0.9458 
B(  0-C ,  7-H ) :   0.0524 B(  0-C , 11-H ) :   0.0524 B(  1-C ,  2-C ) :   1.4644 
B(  1-C ,  3-C ) :   0.0724 B(  1-C ,  4-C ) :   0.1131 B(  1-C ,  5-C ) :   0.0724 
B(  1-C ,  6-H ) :   0.0524 B(  1-C ,  7-H ) :   0.9459 B(  1-C ,  8-H ) :   0.0524 
B(  2-C ,  3-C ) :   1.4644 B(  2-C ,  4-C ) :   0.0724 B(  2-C ,  5-C ) :   0.1132 
B(  2-C ,  7-H ) :   0.0524 B(  2-C ,  8-H ) :   0.9459 B(  2-C ,  9-H ) :   0.0524 
B(  3-C ,  4-C ) :   1.4648 B(  3-C ,  5-C ) :   0.0724 B(  3-C ,  8-H ) :   0.0524 
B(  3-C ,  9-H ) :   0.9458 B(  3-C , 10-H ) :   0.0524 B(  4-C ,  5-C ) :   1.4644 
B(  4-C ,  9-H ) :   0.0524 B(  4-C , 10-H ) :   0.9459 B(  4-C , 11-H ) :   0.0524 
B(  5-C ,  6-H ) :   0.0524 B(  5-C , 10-H ) :   0.0524 B(  5-C , 11-H ) :   0.9459 


------------------------------------------
LOEWDIN REDUCED ORBITAL POPULATIONS PER MO
-------------------------------------------
THRESHOLD FOR PRINTING IS 0.1%
SPIN UP
                      0         1         2         3         4         5   
                 -10.71181 -10.71162 -10.71157 -10.71106 -10.71101 -10.71083
                   1.00000   1.00000   1.00000   1.00000   1.00000   1.00000
                  --------  --------  --------  --------  --------  --------
 0 C  s              18.8      32.2       2.5      28.8       2.7      14.6
 1 C  s              15.0       1.9      29.2       1.9      33.2      18.4
 2 C  s              16.4      15.6      17.9      19.1      14.1      16.5
 3 C  s              18.1      32.6       2.5      28.6       2.6      15.1
 4 C  s              14.7       2.1      29.2       1.7      33.1      18.8
 5 C  s              16.7      15.1      18.2      19.4      13.8      16.3

                      6         7         8         9        10        11   
                  -1.03098  -0.91787  -0.91774  -0.75832  -0.75813  -0.66249
                   1.00000   1.00000   1.00000   1.00000   1.00000   1.00000
                  --------  --------  --------  --------  --------  --------
 0 C  s              12.2      13.3       5.5       3.0       6.3       0.3
 0 C  px              2.4       0.3       0.1       0.2       2.8      10.7
 0 C  py              0.1       2.4       6.2      10.2       3.5       0.3
 0 C  dz2             0.1       0.1       0.0       0.0       0.0       0.0
 0 C  dxy             0.0       0.1       0.1       0.1       0.1       0.0
 1 C  s              12.2      14.9       4.0       1.7       7.5       0.3
 1 C  px              0.3       1.4       6.2      11.5       1.0       1.4
 1 C  py              2.1       0.6       0.7       0.3       3.8       9.5
 1 C  dz2             0.1       0.1       0.0       0.0       0.0       0.0
 1 C  dx2y2           0.0       0.0       0.2       0.1       0.0       0.0
 2 C  s              12.2       0.0      18.8       9.2       0.1       0.3
 2 C  px              1.0       5.3       0.0       0.7       8.9       4.3
 2 C  py              1.5       3.4       0.1       2.1       5.1       6.6
 2 C  dz2             0.1       0.0       0.1       0.0       0.0       0.0
 2 C  dx2y2           0.0       0.3       0.0       0.0       0.2       0.0
 3 C  s              12.2      13.3       5.5       3.0       6.3       0.3
 3 C  px              2.4       0.3       0.1       0.2       2.8      10.7
 3 C  py              0.1       2.4       6.2      10.2       3.5       0.3
 3 C  dz2             0.1       0.1       0.0       0.0       0.0       0.0
 3 C  dxy             0.0       0.1       0.1       0.1       0.1       0.0
 4 C  s              12.2      14.9       4.0       1.7       7.5       0.3
 4 C  px              0.3       1.4       6.2      11.5       1.0       1.4
 4 C  py              2.1       0.6       0.7       0.3       3.8       9.5
 4 C  dz2             0.1       0.1       0.0       0.0       0.0       0.0
 4 C  dx2y2           0.0       0.0       0.2       0.1       0.0       0.0
 5 C  s              12.2       0.0      18.8       9.2       0.1       0.3
 5 C  px              1.0       5.3       0.0       0.7       8.9       4.3
 5 C  py              1.5       3.4       0.1       2.1       5.1       6.6
 5 C  dz2             0.1       0.0       0.1       0.0       0.0       0.0
 5 C  dx2y2           0.0       0.3       0.0       0.0       0.2       0.0
 6 H  s               1.8       3.3       1.4       2.0       4.4       5.1
 6 H  px              0.1       0.3       0.1       0.2       0.3       0.2
 7 H  s               1.8       3.7       1.0       1.2       5.2       5.1
 7 H  px              0.0       0.0       0.0       0.0       0.1       0.0
 7 H  py              0.1       0.3       0.1       0.1       0.3       0.2
 8 H  s               1.8       0.0       4.7       6.4       0.0       5.1
 8 H  px              0.1       0.0       0.2       0.2       0.0       0.1
 8 H  py              0.1       0.0       0.3       0.3       0.0       0.2
 9 H  s               1.8       3.3       1.4       2.0       4.4       5.1
 9 H  px              0.1       0.3       0.1       0.2       0.3       0.2
10 H  s               1.8       3.7       1.0       1.2       5.2       5.1
10 H  px              0.0       0.0       0.0       0.0       0.1       0.0
10 H  py              0.1       0.3       0.1       0.1       0.3       0.2
11 H  s               1.8       0.0       4.7       6.4       0.0       5.1
11 H  px              0.1       0.0       0.2       0.2       0.0       0.1
11 H  py              0.1       0.0       0.3       0.3       0.0       0.2

                     12        13        14        15        16        17   
                  -0.60812  -0.57771  -0.55497  -0.55490  -0.48212  -0.47243
                   1.00000   1.00000   1.00000   1.00000   1.00000   1.00000
                  --------  --------  --------  --------  --------  --------
 0 C  s               3.0       0.0       0.5       0.0       0.0       0.0
 0 C  pz              0.0       0.0       0.0       0.0      16.4       0.0
 0 C  px              5.1       0.4      19.5       0.8       0.0       4.9
 0 C  py              0.1      15.9       0.8       1.1       0.0       6.6
 0 C  dxz             0.0       0.0       0.0       0.0       0.1       0.0
 0 C  dx2y2           0.3       0.0       0.2       0.0       0.0       0.2
 0 C  dxy             0.0       0.1       0.0       0.4       0.0       0.4
 1 C  s               3.0       0.0       0.1       0.4       0.0       0.0
 1 C  pz              0.0       0.0       0.0       0.0      16.4       0.0
 1 C  px              0.7      14.2       0.3       3.6       0.0       6.2
 1 C  py              4.6       2.1       3.5      14.8       0.0       5.6
 1 C  dyz             0.0       0.0       0.0       0.0       0.1       0.0
 1 C  dx2y2           0.2       0.1       0.1       0.2       0.0       0.0
 1 C  dxy             0.2       0.1       0.3       0.0       0.0       0.5
 2 C  s               3.0       0.0       0.2       0.3       0.0       0.1
 2 C  pz              0.0       0.0       0.0       0.0      16.4       0.0
 2 C  px              2.1       9.9       1.4       7.6       0.0       4.8
 2 C  py              3.2       6.4       7.8       5.3       0.0       5.0
 2 C  dx2y2           0.0       0.1       0.2       0.2       0.0       0.1
 2 C  dxy             0.4       0.0       0.1       0.0       0.0       0.9
 3 C  s               3.0       0.0       0.5       0.0       0.0       0.0
 3 C  pz              0.0       0.0       0.0       0.0      16.4       0.0
 3 C  px              5.1       0.4      19.5       0.8       0.0       4.9
 3 C  py              0.1      15.9       0.8       1.1       0.0       6.6
 3 C  dxz             0.0       0.0       0.0       0.0       0.1       0.0
 3 C  dx2y2           0.3       0.0       0.2       0.0       0.0       0.2
 3 C  dxy             0.0       0.1       0.0       0.4       0.0       0.4
 4 C  s               3.0       0.0       0.1       0.4       0.0       0.0
 4 C  pz              0.0       0.0       0.0       0.0      16.4       0.0
 4 C  px              0.7      14.2       0.3       3.6       0.0       6.2
 4 C  py              4.6       2.1       3.5      14.8       0.0       5.6
 4 C  dyz             0.0       0.0       0.0       0.0       0.1       0.0
 4 C  dx2y2           0.2       0.1       0.1       0.2       0.0       0.0
 4 C  dxy             0.2       0.1       0.3       0.0       0.0       0.5
 5 C  s               3.0       0.0       0.2       0.3       0.0       0.1
 5 C  pz              0.0       0.0       0.0       0.0      16.4       0.0
 5 C  px              2.1       9.9       1.4       7.6       0.0       4.8
 5 C  py              3.2       6.4       7.8       5.3       0.0       5.0
 5 C  dx2y2           0.0       0.1       0.2       0.2       0.0       0.1
 5 C  dxy             0.4       0.0       0.1       0.0       0.0       0.9
 6 H  s               7.7       0.0       9.7       0.3       0.0       3.1
 6 H  pz              0.0       0.0       0.0       0.0       0.2       0.0
 6 H  px              0.4       0.0       0.2       0.0       0.0       0.0
 6 H  py              0.0       0.2       0.0       0.0       0.0       0.2
 7 H  s               7.7       0.0       1.2       8.7       0.0       1.7
 7 H  pz              0.0       0.0       0.0       0.0       0.2       0.0
 7 H  px              0.0       0.2       0.0       0.0       0.0       0.2
 7 H  py              0.3       0.0       0.0       0.2       0.0       0.0
 8 H  s               7.7       0.0       4.0       5.9       0.0       9.4
 8 H  pz              0.0       0.0       0.0       0.0       0.2       0.0
 8 H  px              0.1       0.1       0.1       0.0       0.0       0.0
 8 H  py              0.2       0.1       0.0       0.1       0.0       0.1
 9 H  s               7.7       0.0       9.7       0.3       0.0       3.1
 9 H  pz              0.0       0.0       0.0       0.0       0.2       0.0
 9 H  px              0.4       0.0       0.2       0.0       0.0       0.0
 9 H  py              0.0       0.2       0.0       0.0       0.0       0.2
10 H  s               7.7       0.0       1.2       8.7       0.0       1.7
10 H  pz              0.0       0.0       0.0       0.0       0.2       0.0
10 H  px              0.0       0.2       0.0       0.0       0.0       0.2
10 H  py              0.3       0.0       0.0       0.2       0.0       0.0
11 H  s               7.7       0.0       4.0       5.9       0.0       9.4
11 H  pz              0.0       0.0       0.0       0.0       0.2       0.0
11 H  px              0.1       0.1       0.1       0.0       0.0       0.0
11 H  py              0.2       0.1       0.0       0.1       0.0       0.1

                     18        19        20        21        22        23   
                  -0.47230  -0.34118  -0.34109   0.08621   0.08633   0.15258
                   1.00000   1.00000   1.00000   0.00000   0.00000   0.00000
                  --------  --------  --------  --------  --------  --------
 0 C  s               0.1       0.0       0.0       0.0       0.0       1.7
 0 C  pz              0.0      22.4       9.7      13.4      16.9       0.0
 0 C  px              5.0       0.0       0.0       0.0       0.0       1.6
 0 C  py              5.6       0.0       0.0       0.0       0.0       0.0
 0 C  dz2             0.0       0.0       0.0       0.0       0.0       0.1
 0 C  dxz             0.0       0.1       0.0       0.0       0.2       0.0
 0 C  dyz             0.0       0.2       0.4       0.9       0.6       0.0
 0 C  dx2y2           0.8       0.0       0.0       0.0       0.0       0.8
 1 C  s               0.1       0.0       0.0       0.0       0.0       1.7
 1 C  pz              0.0      25.7       6.4       3.0      27.4       0.0
 1 C  px              5.8       0.0       0.0       0.0       0.0       0.2
 1 C  py              4.5       0.0       0.0       0.0       0.0       1.4
 1 C  dz2             0.0       0.0       0.0       0.0       0.0       0.1
 1 C  dxz             0.0       0.1       0.5       1.2       0.0       0.0
 1 C  dyz             0.0       0.1       0.0       0.1       0.3       0.0
 1 C  dx2y2           0.7       0.0       0.0       0.0       0.0       0.5
 1 C  dxy             0.2       0.0       0.0       0.0       0.0       0.4
 2 C  s               0.0       0.0       0.0       0.0       0.0       1.7
 2 C  pz              0.0       0.1      32.0      29.1       1.2       0.0
 2 C  px              6.5       0.0       0.0       0.0       0.0       0.6
 2 C  py              5.8       0.0       0.0       0.0       0.0       1.0
 2 C  dz2             0.0       0.0       0.0       0.0       0.0       0.1
 2 C  dxz             0.0       0.4       0.0       0.0       0.9       0.0
 2 C  dyz             0.0       0.2       0.0       0.2       0.5       0.0
 2 C  dx2y2           0.3       0.0       0.0       0.0       0.0       0.0
 2 C  dxy             0.0       0.0       0.0       0.0       0.0       0.9
 3 C  s               0.1       0.0       0.0       0.0       0.0       1.7
 3 C  pz              0.0      22.4       9.7      13.4      16.9       0.0
 3 C  px              5.0       0.0       0.0       0.0       0.0       1.6
 3 C  py              5.6       0.0       0.0       0.0       0.0       0.0
 3 C  dz2             0.0       0.0       0.0       0.0       0.0       0.1
 3 C  dxz             0.0       0.1       0.0       0.0       0.2       0.0
 3 C  dyz             0.0       0.2       0.4       0.9       0.6       0.0
 3 C  dx2y2           0.8       0.0       0.0       0.0       0.0       0.8
 4 C  s               0.1       0.0       0.0       0.0       0.0       1.7
 4 C  pz              0.0      25.7       6.4       3.0      27.4       0.0
 4 C  px              5.8       0.0       0.0       0.0       0.0       0.2
 4 C  py              4.5       0.0       0.0       0.0       0.0       1.4
 4 C  dz2             0.0       0.0       0.0       0.0       0.0       0.1
 4 C  dxz             0.0       0.1       0.5       1.2       0.0       0.0
 4 C  dyz             0.0       0.1       0.0       0.1       0.3       0.0
 4 C  dx2y2           0.7       0.0       0.0       0.0       0.0       0.5
 4 C  dxy             0.2       0.0       0.0       0.0       0.0       0.4
 5 C  s               0.0       0.0       0.0       0.0       0.0       1.7
 5 C  pz              0.0       0.1      32.0      29.1       1.2       0.0
 5 C  px              6.5       0.0       0.0       0.0       0.0       0.6
 5 C  py              5.8       0.0       0.0       0.0       0.0       1.0
 5 C  dz2             0.0       0.0       0.0       0.0       0.0       0.1
 5 C  dxz             0.0       0.4       0.0       0.0       0.9       0.0
 5 C  dyz             0.0       0.2       0.0       0.2       0.5       0.0
 5 C  dx2y2           0.3       0.0       0.0       0.0       0.0       0.0
 5 C  dxy             0.0       0.0       0.0       0.0       0.0       0.9
 6 H  s               6.4       0.0       0.0       0.0       0.0      10.5
 6 H  pz              0.0       0.4       0.2       0.6       0.7       0.0
 6 H  px              0.1       0.0       0.0       0.0       0.0       1.8
 7 H  s               7.8       0.0       0.0       0.0       0.0      10.6
 7 H  pz              0.0       0.4       0.1       0.1       1.2       0.0
 7 H  px              0.0       0.0       0.0       0.0       0.0       0.2
 7 H  py              0.1       0.0       0.0       0.0       0.0       1.6
 8 H  s               0.1       0.0       0.0       0.0       0.0      10.4
 8 H  pz              0.0       0.0       0.5       1.3       0.1       0.0
 8 H  px              0.1       0.0       0.0       0.0       0.0       0.7
 8 H  py              0.1       0.0       0.0       0.0       0.0       1.1
 9 H  s               6.4       0.0       0.0       0.0       0.0      10.5
 9 H  pz              0.0       0.4       0.2       0.6       0.7       0.0
 9 H  px              0.1       0.0       0.0       0.0       0.0       1.8
10 H  s               7.8       0.0       0.0       0.0       0.0      10.6
10 H  pz              0.0       0.4       0.1       0.1       1.2       0.0
10 H  px              0.0       0.0       0.0       0.0       0.0       0.2
10 H  py              0.1       0.0       0.0       0.0       0.0       1.6
11 H  s               0.1       0.0       0.0       0.0       0.0      10.4
11 H  pz              0.0       0.0       0.5       1.3       0.1       0.0
11 H  px              0.1       0.0       0.0       0.0       0.0       0.7
11 H  py              0.1       0.0       0.0       0.0       0.0       1.1

                     24        25        26        27        28        29   
                   0.19199   0.19251   0.22591   0.22604   0.24635   0.27111
                   0.00000   0.00000   0.00000   0.00000   0.00000   0.00000
                  --------  --------  --------  --------  --------  --------
 0 C  s               0.7       1.0       2.7       2.1       1.9       0.0
 0 C  pz              0.0       0.0       0.0       0.0       0.0      14.8
 0 C  px              1.9       2.9       0.9       0.6       0.7       0.0
 0 C  py              0.2       0.2       0.1       0.4       0.0       0.0
 0 C  dz2             0.0       0.0       0.2       0.2       0.2       0.0
 0 C  dxz             0.0       0.0       0.0       0.0       0.0       0.4
 0 C  dx2y2           0.2       0.2       0.1       0.0       0.0       0.0
 0 C  dxy             0.0       0.1       0.0       0.1       0.0       0.0
 1 C  s               1.7       0.0       0.2       4.6       1.9       0.0
 1 C  pz              0.0       0.0       0.0       0.0       0.0      14.8
 1 C  px              0.6       0.3       0.3       0.3       0.1       0.0
 1 C  py              4.1       0.2       0.2       1.2       0.6       0.0
 1 C  dz2             0.1       0.0       0.0       0.4       0.2       0.0
 1 C  dyz             0.0       0.0       0.0       0.0       0.0       0.4
 1 C  dx2y2           0.3       0.0       0.1       0.0       0.0       0.0
 1 C  dxy             0.2       0.1       0.1       0.1       0.0       0.0
 2 C  s               0.2       1.5       4.3       0.5       1.9       0.0
 2 C  pz              0.0       0.0       0.0       0.0       0.0      14.8
 2 C  px              0.4       1.7       0.8       0.1       0.3       0.0
 2 C  py              0.5       2.6       0.7       0.4       0.4       0.0
 2 C  dz2             0.0       0.1       0.3       0.0       0.2       0.0
 2 C  dxz             0.0       0.0       0.0       0.0       0.0       0.2
 2 C  dyz             0.0       0.0       0.0       0.0       0.0       0.3
 2 C  dx2y2           0.1       0.1       0.0       0.1       0.0       0.0
 2 C  dxy             0.1       0.3       0.1       0.0       0.0       0.0
 3 C  s               0.7       1.0       2.7       2.1       1.9       0.0
 3 C  pz              0.0       0.0       0.0       0.0       0.0      14.8
 3 C  px              1.9       2.9       0.9       0.6       0.7       0.0
 3 C  py              0.2       0.2       0.1       0.4       0.0       0.0
 3 C  dz2             0.0       0.0       0.2       0.2       0.2       0.0
 3 C  dxz             0.0       0.0       0.0       0.0       0.0       0.4
 3 C  dx2y2           0.2       0.2       0.1       0.0       0.0       0.0
 3 C  dxy             0.0       0.1       0.0       0.1       0.0       0.0
 4 C  s               1.7       0.0       0.2       4.6       1.9       0.0
 4 C  pz              0.0       0.0       0.0       0.0       0.0      14.8
 4 C  px              0.6       0.3       0.3       0.3       0.1       0.0
 4 C  py              4.1       0.2       0.2       1.2       0.6       0.0
 4 C  dz2             0.1       0.0       0.0       0.4       0.2       0.0
 4 C  dyz             0.0       0.0       0.0       0.0       0.0       0.4
 4 C  dx2y2           0.3       0.0       0.1       0.0       0.0       0.0
 4 C  dxy             0.2       0.1       0.1       0.1       0.0       0.0
 5 C  s               0.2       1.5       4.3       0.5       1.9       0.0
 5 C  pz              0.0       0.0       0.0       0.0       0.0      14.8
 5 C  px              0.4       1.7       0.8       0.1       0.3       0.0
 5 C  py              0.5       2.6       0.7       0.4       0.4       0.0
 5 C  dz2             0.0       0.1       0.3       0.0       0.2       0.0
 5 C  dxz             0.0       0.0       0.0       0.0       0.0       0.2
 5 C  dyz             0.0       0.0       0.0       0.0       0.0       0.3
 5 C  dx2y2           0.1       0.1       0.0       0.1       0.0       0.0
 5 C  dxy             0.1       0.3       0.1       0.0       0.0       0.0
 6 H  s               9.0      13.2      12.3       9.5      11.7       0.0
 6 H  pz              0.0       0.0       0.0       0.0       0.0       1.4
 6 H  px              1.4       2.1       1.8       1.8       2.1       0.0
 6 H  py              0.1       0.0       0.4       0.1       0.1       0.0
 7 H  s              21.6       0.6       0.8      20.9      11.7       0.0
 7 H  pz              0.0       0.0       0.0       0.0       0.0       1.4
 7 H  px              0.5       0.0       0.5       0.3       0.3       0.0
 7 H  py              3.0       0.1       0.0       3.2       1.9       0.0
 8 H  s               2.7      19.5      19.6       2.3      11.7       0.0
 8 H  pz              0.0       0.0       0.0       0.0       0.0       1.4
 8 H  px              0.1       1.3       1.0       0.8       0.8       0.0
 8 H  py              0.3       1.8       2.4       0.0       1.3       0.0
 9 H  s               9.0      13.2      12.3       9.5      11.7       0.0
 9 H  pz              0.0       0.0       0.0       0.0       0.0       1.4
[...]
   Memory available              ...   512 MB
   Number of vectors per batch   ...   512
   Number of batches             ...     1
   Time for densities:     0.074
   Using LibInt in JK Direct
   Time for J+K (Direct):    22.034
   Time for XC-Integration:     0.702
   Time for Sigma-Completion:     0.150
   Size of expansion space: 30
   Lowest Energy          :     0.153516257410
   Maximum Energy change  :     0.319188409513 (vector 9)
   Maximum residual norm  :     0.029169154736

                       ****Iteration    1****
   Time for densities:     0.026
   Using LibInt in JK Direct
   Time for J+K (Direct):     5.950
   Time for XC-Integration:     0.255
   Time for Sigma-Completion:     0.051
   Size of expansion space: 40
   Lowest Energy          :     0.126833465636
   Maximum Energy change  :     0.026682791773 (vector 0)
   Maximum residual norm  :     0.000905758345

                       ****Iteration    2****
   Time for densities:     0.022
   Using LibInt in JK Direct
   Time for J+K (Direct):     5.881
   Time for XC-Integration:     0.266
   Time for Sigma-Completion:     0.058
   Size of expansion space: 50
   Lowest Energy          :     0.126620075012
   Maximum Energy change  :     0.001822199928 (vector 5)
   Maximum residual norm  :     0.000060077237

                       ****Iteration    3****
   Time for densities:     0.025
   Using LibInt in JK Direct
   Time for J+K (Direct):     6.110
   Time for XC-Integration:     0.255
   Time for Sigma-Completion:     0.055
   Size of expansion space: 60
   Lowest Energy          :     0.126606729901
   Maximum Energy change  :     0.000142559374 (vector 7)
   Maximum residual norm  :     0.000011361645

                       ****Iteration    4****
   Time for densities:     0.022
   Using LibInt in JK Direct
   Time for J+K (Direct):     5.942
   Time for XC-Integration:     0.264
   Time for Sigma-Completion:     0.054
   Size of expansion space: 70
   Lowest Energy          :     0.126606437260
   Maximum Energy change  :     0.000018865469 (vector 7)
   Maximum residual norm  :     0.000001608268

                       ****Iteration    5****
   Time for densities:     0.024
   Using LibInt in JK Direct
   Time for J+K (Direct):     6.144
   Time for XC-Integration:     0.251
   Time for Sigma-Completion:     0.056
   Size of expansion space: 80
   Lowest Energy          :     0.126606417548
   Maximum Energy change  :     0.000003365498 (vector 9)
   Maximum residual norm  :     0.000000815232

                       ****Iteration    6****
   Time for densities:     0.050
   Using LibInt in JK Direct
   Time for J+K (Direct):     7.246
   Time for XC-Integration:     0.268
   Time for Sigma-Completion:     0.061
   Size of expansion space: 90
   Lowest Energy          :     0.126606417205
   Maximum Energy change  :     0.003159392898 (vector 9)
   Maximum residual norm  :     0.013574751895

                       ****Iteration    7****
   Time for densities:     0.051
   Using LibInt in JK Direct
   Time for J+K (Direct):     6.994
   Time for XC-Integration:     0.273
   Time for Sigma-Completion:     0.057
   Size of expansion space: 100
   Lowest Energy          :     0.126606417203
   Maximum Energy change  :     0.010444281258 (vector 6)
   Maximum residual norm  :     0.002168533361
   Rebuilding the expansion space

                       ****Iteration    8****
   Time for densities:     0.102
   Using LibInt in JK Direct
   Time for J+K (Direct):    15.200
   Time for XC-Integration:     0.913
   Time for Sigma-Completion:     0.608
   Size of expansion space: 19
   Lowest Energy          :     0.126606417204
   Maximum Energy change  :     0.001333727865 (vector 6)
   Maximum residual norm  :     0.000282002464

                       ****Iteration    9****
   Time for densities:     0.009
   Using LibInt in JK Direct
   Time for J+K (Direct):     2.429
   Time for XC-Integration:     0.110
   Time for Sigma-Completion:     0.022
   Size of expansion space: 23
   Lowest Energy          :     0.126606417204
   Maximum Energy change  :     0.013249276191 (vector 7)
   Maximum residual norm  :     0.030317893164

                       ****Iteration   10****
   Time for densities:     0.009
   Using LibInt in JK Direct
   Time for J+K (Direct):     2.318
   Time for XC-Integration:     0.106
   Time for Sigma-Completion:     0.021
   Size of expansion space: 27
   Lowest Energy          :     0.126606417204
   Maximum Energy change  :     0.018329792728 (vector 7)
   Maximum residual norm  :     0.002569628971

                       ****Iteration   11****
   Time for densities:     0.023
   Using LibInt in JK Direct
   Time for J+K (Direct):     3.687
   Time for XC-Integration:     0.257
   Time for Sigma-Completion:     0.252
   Size of expansion space: 31
   Lowest Energy          :     0.126606417204
   Maximum Energy change  :     0.002014716793 (vector 7)
   Maximum residual norm  :     0.000184458690

                       ****Iteration   12****
   Time for densities:     0.010
   Using LibInt in JK Direct
   Time for J+K (Direct):     2.435
   Time for XC-Integration:     0.112
   Time for Sigma-Completion:     0.024
   Size of expansion space: 35
   Lowest Energy          :     0.126606417204
   Maximum Energy change  :     0.000179421492 (vector 7)
   Maximum residual norm  :     0.000035205348

                       ****Iteration   13****
   Time for densities:     0.009
   Using LibInt in JK Direct
   Time for J+K (Direct):     2.878
   Time for XC-Integration:     0.232
   Time for Sigma-Completion:     0.226
   Size of expansion space: 39
   Lowest Energy          :     0.126606417204
   Maximum Energy change  :     0.000033188504 (vector 7)
   Maximum residual norm  :     0.000007025198

                       ****Iteration   14****
   Time for densities:     0.025
   Using LibInt in JK Direct
   Time for J+K (Direct):     2.735
   Time for XC-Integration:     0.112
   Time for Sigma-Completion:     0.024
   Size of expansion space: 43
   Lowest Energy          :     0.126606417204
   Maximum Energy change  :     0.000005932256 (vector 6)
   Maximum residual norm  :     0.000001284692

                       ****Iteration   15****
   Time for densities:     0.011
   Using LibInt in JK Direct
   Time for J+K (Direct):     2.392
   Time for XC-Integration:     0.105
   Time for Sigma-Completion:     0.021
   Size of expansion space: 47
   Lowest Energy          :     0.126606417204
   Maximum Energy change  :     0.000001447146 (vector 6)
   Maximum residual norm  :     0.000000565361

                       ****Iteration   16****
   Time for densities:     0.024
   Using LibInt in JK Direct
   Time for J+K (Direct):     3.857
   Time for XC-Integration:     0.111
   Time for Sigma-Completion:     0.026
   Size of expansion space: 51
   Lowest Energy          :     0.126606417204
   Maximum Energy change  :     0.000000506727 (vector 6)
   Maximum residual norm  :     0.000000118459

      *** CONVERGENCE OF RESIDUAL NORM REACHED ***

Storing the converged CI vectors               ... benzene_0_1_wb2plyp_def2-svp.tddft.cis1

                 *** DAVIDSON DONE ***

Total time for solving the CIS problem:   157.768sec

------------------
DOUBLES CORRECTION (Double precision version)
------------------

The (D) correction will be scaled by  0.2700
Doing v(i,a)*T(i,a) terms (RI)                    ... ok
Doing u(i,j,a,b) terms for state   0              ... ok
Doing u(i,j,a,b) terms for state   1              ... ok
Doing u(i,j,a,b) terms for state   2              ... ok
Doing u(i,j,a,b) terms for state   3              ... ok
Doing u(i,j,a,b) terms for state   4              ... ok
Doing u(i,j,a,b) terms for state   5              ... ok
Doing u(i,j,a,b) terms for state   6              ... ok
Doing u(i,j,a,b) terms for state   7              ... ok
Doing u(i,j,a,b) terms for state   8              ... ok
Doing u(i,j,a,b) terms for state   9              ... ok

Contributions to the (D) correction(s) (in eV)

STATE  Final   Init.   Total   v(ext)   v(int)  v(3)    u
       omega   omega     (D)                             
-----------------------------------------------------------------------------
   0   3.767   3.445   0.322   0.413   0.647  -0.181  -0.557
   1   4.712   4.643   0.070   0.415   0.657  -0.022  -0.981
   2   4.713   4.643   0.070   0.415   0.657  -0.021  -0.981
   3   5.371   5.233   0.138   0.410   0.657  -0.044  -0.885
   4   5.282   5.588  -0.307   0.410   0.657  -0.030  -1.344
   5   6.403   6.236   0.167   0.398   0.651  -0.069  -0.813
   6   7.366   7.271   0.094   0.367   0.536  -0.052  -0.757
   7   7.370   7.276   0.094   0.367   0.536  -0.052  -0.757
   8   7.657   7.864  -0.207   0.387   0.643  -0.163  -1.075
   9   8.153   8.196  -0.042   0.101   0.649  -0.009  -0.784

(D)-timings
 V(i,a)*T(i,a) terms           ...     0.442 sec
 U(i,j,a,b) 3-internal         ...     0.290 sec
 U(i,j,a,b) 3-external         ...     3.906 sec
 U(i,j,a,b) pair terms         ...     1.733 sec
 Total measured time           ...     8.533 sec

 Time for (ab|v) I/O           ...     3.576 sec


-------------------------
TD-DFT/TDA EXCITED STATES
-------------------------

the weight of the individual excitations are printed if larger than 1.0e-02

STATE  1:  E=   0.138437 au      3.767 eV    30383.3 cm**-1
    16a ->  29a  :     0.025227 (c=  0.15882894)
    19a ->  22a  :     0.227986 (c=  0.47747842)
    20a ->  21a  :     0.230662 (c=  0.48027248)
    16b ->  29b  :     0.025227 (c= -0.15882894)
    19b ->  22b  :     0.227986 (c= -0.47747842)
    20b ->  21b  :     0.230662 (c= -0.48027248)

STATE  2:  E=   0.173181 au      4.712 eV    38008.8 cm**-1
    19a ->  21a  :     0.095566 (c=  0.30913693)
    19a ->  22a  :     0.154151 (c= -0.39262120)
    20a ->  21a  :     0.152673 (c=  0.39073453)
    20a ->  22a  :     0.094803 (c=  0.30790125)
    19b ->  21b  :     0.095566 (c= -0.30913693)
    19b ->  22b  :     0.154151 (c=  0.39262120)
    20b ->  21b  :     0.152673 (c= -0.39073453)
    20b ->  22b  :     0.094803 (c= -0.30790125)

STATE  3:  E=   0.173201 au      4.713 eV    38013.3 cm**-1
    19a ->  21a  :     0.153604 (c= -0.39192368)
    19a ->  22a  :     0.095754 (c= -0.30944143)
    20a ->  21a  :     0.094613 (c=  0.30759281)
    20a ->  22a  :     0.153221 (c= -0.39143442)
    19b ->  21b  :     0.153604 (c=  0.39192368)
    19b ->  22b  :     0.095754 (c=  0.30944143)
    20b ->  21b  :     0.094613 (c= -0.30759281)
    20b ->  22b  :     0.153221 (c=  0.39143442)

STATE  4:  E=   0.197398 au      5.371 eV    43323.8 cm**-1
    19a ->  21a  :     0.243663 (c=  0.49362241)
    20a ->  22a  :     0.244825 (c= -0.49479805)
    19b ->  21b  :     0.243663 (c= -0.49362241)
    20b ->  22b  :     0.244825 (c=  0.49479805)

STATE  5:  E=   0.194092 au      5.282 eV    42598.3 cm**-1
    19a ->  21a  :     0.244027 (c= -0.49399092)
    20a ->  22a  :     0.243857 (c=  0.49381915)
    19b ->  21b  :     0.244027 (c= -0.49399092)
    20b ->  22b  :     0.243857 (c=  0.49381915)

STATE  6:  E=   0.235306 au      6.403 eV    51643.7 cm**-1
    19a ->  22a  :     0.235794 (c= -0.48558672)
    20a ->  21a  :     0.237295 (c= -0.48712930)
    19b ->  22b  :     0.235794 (c= -0.48558672)
    20b ->  21b  :     0.237295 (c= -0.48712930)

STATE  7:  E=   0.270688 au      7.366 eV    59409.2 cm**-1
    16a ->  21a  :     0.338302 (c= -0.58163714)
    20a ->  29a  :     0.150984 (c= -0.38856608)
    16b ->  21b  :     0.338302 (c=  0.58163714)
    20b ->  29b  :     0.150984 (c=  0.38856609)

STATE  8:  E=   0.270837 au      7.370 eV    59441.9 cm**-1
    16a ->  22a  :     0.338206 (c= -0.58155483)
    19a ->  29a  :     0.151080 (c= -0.38868956)
    16b ->  22b  :     0.338206 (c=  0.58155483)
    19b ->  29b  :     0.151080 (c=  0.38868956)

STATE  9:  E=   0.281387 au      7.657 eV    61757.4 cm**-1
    19a ->  21a  :     0.193866 (c= -0.44030190)
    19a ->  22a  :     0.037783 (c=  0.19437854)
    20a ->  21a  :     0.037554 (c= -0.19378917)
    20a ->  22a  :     0.194048 (c= -0.44050867)
    19b ->  21b  :     0.193866 (c= -0.44030190)
    19b ->  22b  :     0.037783 (c=  0.19437854)
    20b ->  21b  :     0.037554 (c= -0.19378917)
    20b ->  22b  :     0.194048 (c= -0.44050867)

STATE 10:  E=   0.299631 au      8.153 eV    65761.4 cm**-1
    16a ->  24a  :     0.019728 (c=  0.14045738)
    19a ->  23a  :     0.362548 (c= -0.60211998)
    20a ->  23a  :     0.093509 (c= -0.30579183)
    16b ->  24b  :     0.019728 (c= -0.14045738)
    19b ->  23b  :     0.362548 (c=  0.60211998)
    20b ->  23b  :     0.093509 (c=  0.30579183)


-----------------------------
TD-DFT/TDA-EXCITATION SPECTRA
-----------------------------

Center of mass = (  0.0090, -0.0104,  0.0009)
Calculating the Dipole integrals                  ... done
Transforming integrals                            ... done
Calculating the Linear Momentum integrals         ... done
Transforming integrals                            ... done
Calculating angular momentum integrals            ... done
Transforming integrals                            ... done

-----------------------------------------------------------------------------
         ABSORPTION SPECTRUM VIA TRANSITION ELECTRIC DIPOLE MOMENTS
-----------------------------------------------------------------------------
State   Energy    Wavelength  fosc         T2        TX        TY        TZ  
        (cm-1)      (nm)                 (au**2)    (au)      (au)      (au) 
-----------------------------------------------------------------------------
   1   30383.3    329.1   0.000000000   0.00000  -0.00000   0.00000   0.00000
   2   38008.8    263.1   0.000000000   0.00000   0.00000   0.00000   0.00000
   3   38013.3    263.1   0.000000000   0.00000  -0.00000   0.00000   0.00000
   4   43323.8    230.8   0.000000000   0.00000  -0.00000   0.00000   0.00000
   5   42598.3    234.8   0.000000037   0.00000  -0.00045  -0.00028  -0.00001
   6   51643.7    193.6   0.000002199   0.00001  -0.00128  -0.00352  -0.00002
   7   59409.2    168.3   0.000000000   0.00000  -0.00000   0.00000   0.00000
   8   59441.9    168.2   0.000000000   0.00000  -0.00000   0.00000   0.00000
   9   61757.4    161.9   1.013467940   5.40253  -2.32430   0.00215  -0.01160
  10   65761.4    152.1   0.000000000   0.00000   0.00000  -0.00000  -0.00000

-----------------------------------------------------------------------------
         ABSORPTION SPECTRUM VIA TRANSITION VELOCITY DIPOLE MOMENTS
-----------------------------------------------------------------------------
State   Energy    Wavelength   fosc        P2         PX        PY        PZ  
        (cm-1)      (nm)                 (au**2)     (au)      (au)      (au) 
-----------------------------------------------------------------------------
   1   30383.3    329.1   0.000000000   0.00000   0.00000  -0.00000  -0.00000
   2   38008.8    263.1   0.000000000   0.00000   0.00000  -0.00000  -0.00000
   3   38013.3    263.1   0.000000000   0.00000   0.00000  -0.00000   0.00000
   4   43323.8    230.8   0.000000000   0.00000   0.00000  -0.00000  -0.00000
   5   42598.3    234.8   0.000000101   0.00000  -0.00015   0.00008  -0.00000
   6   51643.7    193.6   0.000000174   0.00000  -0.00009  -0.00023  -0.00000
   7   59409.2    168.3   0.000000000   0.00000   0.00000  -0.00000  -0.00000
   8   59441.9    168.2   0.000000000   0.00000   0.00000  -0.00000  -0.00000
   9   61757.4    161.9   0.058230111   0.02458   0.15677  -0.00003   0.00077
  10   65761.4    152.1   0.000000000   0.00000  -0.00000   0.00000   0.00000

-------------------------------------------------------------------
                             CD SPECTRUM
-------------------------------------------------------------------
State  Energy     Wavelength     R         MX        MY        MZ   
       (cm-1)       (nm)     (1e40*cgs)   (au)      (au)      (au)  
-------------------------------------------------------------------
   1   30383.3    329.1      0.00000  -0.00000  -0.00000   0.00000
   2   38008.8    263.1      0.00000  -0.00000   0.00000   0.00000
   3   38013.3    263.1      0.00000  -0.00000   0.00000   0.00000
   4   43323.8    230.8      0.00000  -0.00000  -0.00000  -0.00000
   5   42598.3    234.8     -0.00000   0.00000   0.00000  -0.00000
   6   51643.7    193.6     -0.00000  -0.00000   0.00000  -0.00001
   7   59409.2    168.3      0.00000  -0.00000  -0.00000  -0.00000
   8   59441.9    168.2      0.00000  -0.00000  -0.00000  -0.00000
   9   61757.4    161.9      0.18978  -0.00017   0.00004   0.00000
  10   65761.4    152.1      0.00000   0.00000   0.00000   0.00000

Total run time:      167.279 sec

           *** ORCA-CIS/TD-DFT FINISHED WITHOUT ERROR ***

-----------------------
CIS/TD-DFT TOTAL ENERGY
-----------------------

    E(SCF)  =   -231.291999093 Eh
    DE(CIS) =      0.138436640 Eh (Root  1)
    ----------------------------- ---------
    E(tot)  =   -231.153562454 Eh


-------------------------   --------------------
FINAL SINGLE POINT ENERGY      -231.153562453775
-------------------------   --------------------


                            ***************************************
                            *     ORCA property calculations      *
                            ***************************************


  WARNING: The energy has been calculated at the MP2 level but the densities
           used in the property calculations are still SCF densities
           MP2 response densities have not been calculated 
           use %mp2 Density relaxed end
           or  %mp2 Density unrelaxed end

                                    ---------------------
                                    Active property flags
                                    ---------------------
   (+) Dipole Moment


------------------------------------------------------------------------------
                       ORCA ELECTRIC PROPERTIES CALCULATION
------------------------------------------------------------------------------

Dipole Moment Calculation                       ... on
Quadrupole Moment Calculation                   ... off
Polarizability Calculation                      ... off
GBWName                                         ... benzene_0_1_wb2plyp_def2-svp.tddft.gbw
Electron density file                           ... benzene_0_1_wb2plyp_def2-svp.tddft.scfp
The origin for moment calculation is the CENTER OF MASS  = ( 0.009031, -0.010386  0.000946)

-------------
DIPOLE MOMENT
-------------
                                X             Y             Z
Electronic contribution:     -0.00001       0.00001      -0.00000
Nuclear contribution   :      0.00000      -0.00001       0.00000
                        -----------------------------------------
Total Dipole Moment    :     -0.00001       0.00000       0.00000
                        -----------------------------------------
Magnitude (a.u.)       :      0.00001
Magnitude (Debye)      :      0.00002



--------------------
Rotational spectrum 
--------------------
 
Rotational constants in cm-1:     0.179992     0.179918     0.089978 
Rotational constants in MHz :  5396.039399  5393.801243  2697.460051 

 Dipole components along the rotational axes: 
x,y,z [a.u.] :    -0.000010    -0.000001     0.000000 
x,y,z [Debye]:    -0.000025    -0.000003     0.000001 

 

Timings for individual modules:

Sum of individual times         ...      191.365 sec (=   3.189 min)
GTO integral calculation        ...        2.309 sec (=   0.038 min)   1.2 %
SCF iterations                  ...       11.886 sec (=   0.198 min)   6.2 %
MP2 module                      ...        7.943 sec (=   0.132 min)   4.2 %
CIS module                      ...      169.228 sec (=   2.820 min)  88.4 %
                             ****ORCA TERMINATED NORMALLY****
TOTAL RUN TIME: 0 days 0 hours 3 minutes 14 seconds 210 msec
