
                                 *****************
                                 * O   R   C   A *
                                 *****************

           --- An Ab Initio, DFT and Semiempirical electronic structure package ---

                  #######################################################
                  #                        -***-                        #
                  #          Department of theory and spectroscopy      #
                  #               Directorship: Frank Neese             #
                  #        Max Planck Institute fuer Kohlenforschung    #
                  #                Kaiser Wilhelm Platz 1               #
                  #                 D-45470 Muelheim/Ruhr               #
                  #                      Germany                        #
                  #                                                     #
                  #                  All rights reserved                #
                  #                        -***-                        #
                  #######################################################


                         Program Version 4.2.0 -  RELEASE  -


 With contributions from (in alphabetic order):
   Daniel Aravena         : Magnetic Suceptibility
   Michael Atanasov       : Ab Initio Ligand Field Theory (pilot matlab implementation)
   Alexander A. Auer      : GIAO ZORA, VPT2
   Ute Becker             : Parallelization
   Giovanni Bistoni       : ED, misc. LED, open-shell LED, HFLED
   Martin Brehm           : Molecular dynamics
   Dmytro Bykov           : SCF Hessian
   Vijay G. Chilkuri      : MRCI spin determinant printing, contributions to CSF-ICE
   Dipayan Datta          : RHF DLPNO-CCSD density
   Achintya Kumar Dutta   : EOM-CC, STEOM-CC
   Dmitry Ganyushin       : Spin-Orbit,Spin-Spin,Magnetic field MRCI
   Miquel Garcia          : C-PCM Hessian, Gaussian charge scheme
   Yang Guo               : DLPNO-NEVPT2, CIM, IAO-localization
   Andreas Hansen         : Spin unrestricted coupled pair/coupled cluster methods
   Benjamin Helmich-Paris : CASSCF linear response (MC-RPA)
   Lee Huntington         : MR-EOM, pCC
   Robert Izsak           : Overlap fitted RIJCOSX, COSX-SCS-MP3, EOM
   Christian Kollmar      : KDIIS, OOCD, Brueckner-CCSD(T), CCSD density
   Simone Kossmann        : Meta GGA functionals, TD-DFT gradient, OOMP2, MP2 Hessian
   Martin Krupicka        : AUTO-CI
   Lucas Lang             : DCDCAS
   Dagmar Lenk            : GEPOL surface, SMD
   Dimitrios Liakos       : Extrapolation schemes; Compound Job, initial MDCI parallelization
   Dimitrios Manganas     : Further ROCIS development; embedding schemes
   Dimitrios Pantazis     : SARC Basis sets
   Taras Petrenko         : DFT Hessian,TD-DFT gradient, ASA, ECA, R-Raman, ABS, FL, XAS/XES, NRVS
   Peter Pinski           : DLPNO-MP2, DLPNO-MP2 Gradient
   Christoph Reimann      : Effective Core Potentials
   Marius Retegan         : Local ZFS, SOC
   Christoph Riplinger    : Optimizer, TS searches, QM/MM, DLPNO-CCSD(T), (RO)-DLPNO pert. Triples
   Tobias Risthaus        : Range-separated hybrids, TD-DFT gradient, RPA, STAB
   Michael Roemelt        : Original ROCIS implementation
   Masaaki Saitow         : Open-shell DLPNO-CCSD energy and density
   Barbara Sandhoefer     : DKH picture change effects
   Avijit Sen             : IP-ROCIS
   Kantharuban Sivalingam : CASSCF convergence, NEVPT2, FIC-MRCI
   Bernardo de Souza      : ESD, SOC TD-DFT
   Georgi Stoychev        : AutoAux, RI-MP2 NMR
   Willem Van den Heuvel  : Paramagnetic NMR
   Boris Wezisla          : Elementary symmetry handling
   Frank Wennmohs         : Technical directorship


 We gratefully acknowledge several colleagues who have allowed us to
 interface, adapt or use parts of their codes:
   Stefan Grimme, W. Hujo, H. Kruse,             : VdW corrections, initial TS optimization,
                  C. Bannwarth                     DFT functionals, gCP, sTDA/sTD-DF
   Ed Valeev, F. Pavosevic, A. Kumar             : LibInt (2-el integral package), F12 methods
   Garnet Chan, S. Sharma, J. Yang, R. Olivares  : DMRG
   Ulf Ekstrom                                   : XCFun DFT Library
   Mihaly Kallay                                 : mrcc  (arbitrary order and MRCC methods)
   Andreas Klamt, Michael Diedenhofen            : otool_cosmo (COSMO solvation model)
   Jiri Pittner, Ondrej Demel                    : Mk-CCSD
   Frank Weinhold                                : gennbo (NPA and NBO analysis)
   Christopher J. Cramer and Donald G. Truhlar   : smd solvation model
   Lars Goerigk                                  : TD-DFT with DH, B97 family of functionals
   V. Asgeirsson, H. Jonsson                     : NEB implementation
   FAccTs GmbH                                   : IRC, NEB, NEB-TS, Multilevel, MM, QM/MM, CI optimization
   S Lehtola, MJT Oliveira, MAL Marques          : LibXC Library


 Your calculation uses the libint2 library for the computation of 2-el integrals
 For citations please refer to: http://libint.valeyev.net

 Your ORCA version has been built with support for libXC version: 4.2.3
 For citations please refer to: https://tddft.org/programs/libxc/

 This ORCA versions uses:
   CBLAS   interface :  Fast vector & matrix operations
   LAPACKE interface :  Fast linear algebra routines
   SCALAPACK package :  Parallel linear algebra routines


----- Orbital basis set information -----
Your calculation utilizes the basis: def2-QZVPP
   F. Weigend and R. Ahlrichs, Phys. Chem. Chem. Phys. 7, 3297 (2005).

================================================================================
                                        WARNINGS
                       Please study these warnings very carefully!
================================================================================


INFO   : the flag for use of LIBINT has been found!

================================================================================
                                       INPUT FILE
================================================================================
NAME = H2_0_3_UB3LYP_def2-qzvpp.sp.inp
|  1> !uks b3lyp def2-qzvpp tightscf
|  2> !normalprint
|  3> 
|  4> %paras
|  5>   rHH [19.952623149688797 16.43574799372698 13.538761800225439 11.152402139117903 9.1866653175426 7.567411809920191 6.233570019315557 5.134832907437553 4.229760619613384 3.4842175435383975 2.870084854071569 2.3641999865500756 1.9474830399087562 1.6042171611153242 1.32145576997553 1.088534267260644 0.8966678097917788 0.7386199822079362 0.6084298690766428 0.5011872336272722]
|  6> end
|  7> 
|  8> %scf
|  9>   maxiter 500
| 10> end
| 11> 
| 12> *int 0 3
| 13> H 0 0 0 0 0 0
| 14> H 1 0 0 {rHH} 0 0
| 15> *
| 16> 
| 17>                          ****END OF INPUT****
================================================================================

                       ******************************
                       * Parameter Scan Calculation *
                       ******************************

Trajectory settings:
    -> SCF surface will be mapped

There are 1 parameter(s) to be scanned
           RHH: user defined at 20 points
There will be   20 energy evaluations


         *************************************************************
                                TRAJECTORY STEP   1
                RHH  :  19.95262315
         *************************************************************
---------------------------------
CARTESIAN COORDINATES (ANGSTROEM)
---------------------------------
  H      0.000000    0.000000    0.000000
  H     19.952623    0.000000    0.000000

----------------------------
CARTESIAN COORDINATES (A.U.)
----------------------------
  NO LB      ZA    FRAG     MASS         X           Y           Z
   0 H     1.0000    0     1.008    0.000000    0.000000    0.000000
   1 H     1.0000    0     1.008   37.704993    0.000000    0.000000

--------------------------------
INTERNAL COORDINATES (ANGSTROEM)
--------------------------------
 H      0   0   0     0.000000000000     0.00000000     0.00000000
 H      1   0   0    19.952623149689     0.00000000     0.00000000

---------------------------
INTERNAL COORDINATES (A.U.)
---------------------------
 H      0   0   0     0.000000000000     0.00000000     0.00000000
 H      1   0   0    37.704993406249     0.00000000     0.00000000

---------------------
BASIS SET INFORMATION
---------------------
There are 1 groups of distinct atoms

 Group   1 Type H   : 7s3p2d1f contracted to 4s3p2d1f pattern {4111/111/11/1}

Atom   0H    basis set group =>   1
Atom   1H    basis set group =>   1
------------------------------------------------------------------------------
                           ORCA GTO INTEGRAL CALCULATION
------------------------------------------------------------------------------

                         BASIS SET STATISTICS AND STARTUP INFO

 # of primitive gaussian shells          ...   26
 # of primitive gaussian functions       ...   66
 # of contracted shells                  ...   20
 # of contracted basis functions         ...   60
 Highest angular momentum                ...    3
 Maximum contraction depth               ...    4
 Integral package used                   ... LIBINT
 Integral threshhold            Thresh   ...  2.500e-11
 Primitive cut-off              TCut     ...  2.500e-12


------------------------------ INTEGRAL EVALUATION ----------------------------


 * One electron integrals 
 Pre-screening matrix                    ... done
 Shell pair data                         ... done (   0.000 sec)

-------------------------------------------------------------------------------
                                 ORCA SCF
-------------------------------------------------------------------------------

------------
SCF SETTINGS
------------
Hamiltonian:
 Density Functional     Method          .... DFT(GTOs)
 Exchange Functional    Exchange        .... B88
   X-Alpha parameter    XAlpha          ....  0.666667
   Becke's b parameter  XBeta           ....  0.004200
 Correlation Functional Correlation     .... LYP
 LDA part of GGA corr.  LDAOpt          .... VWN-5
 Gradients option       PostSCFGGA      .... off
 Hybrid DFT is turned on
   Fraction HF Exchange ScalHFX         ....  0.200000
   Scaling of DF-GGA-X  ScalDFX         ....  0.720000
   Scaling of DF-GGA-C  ScalDFC         ....  0.810000
   Scaling of DF-LDA-C  ScalLDAC        ....  1.000000
   Perturbative correction              ....  0.000000
   Density functional embedding theory  .... OFF
   NL short-range parameter             ....  4.800000


General Settings:
 Integral files         IntName         .... H2_0_3_UB3LYP_def2-qzvpp.sp
 Hartree-Fock type      HFTyp           .... UHF
 Total Charge           Charge          ....    0
 Multiplicity           Mult            ....    3
 Number of Electrons    NEL             ....    2
 Basis Dimension        Dim             ....   60
 Nuclear Repulsion      ENuc            ....      0.0265216861 Eh

Convergence Acceleration:
 DIIS                   CNVDIIS         .... on
   Start iteration      DIISMaxIt       ....    12
   Startup error        DIISStart       ....  0.200000
   # of expansion vecs  DIISMaxEq       ....     5
   Bias factor          DIISBfac        ....   1.050
   Max. coefficient     DIISMaxC        ....  10.000
 Newton-Raphson         CNVNR           .... off
 SOSCF                  CNVSOSCF        .... off
 Level Shifting         CNVShift        .... on
   Level shift para.    LevelShift      ....    0.2500
   Turn off err/grad.   ShiftErr        ....    0.0010
 Zerner damping         CNVZerner       .... off
 Static damping         CNVDamp         .... on
   Fraction old density DampFac         ....    0.7000
   Max. Damping (<1)    DampMax         ....    0.9800
   Min. Damping (>=0)   DampMin         ....    0.0000
   Turn off err/grad.   DampErr         ....    0.1000
 Fernandez-Rico         CNVRico         .... off

SCF Procedure:
 Maximum # iterations   MaxIter         ....   500
 SCF integral mode      SCFMode         .... Direct
   Integral package                     .... LIBINT
 Reset frequency        DirectResetFreq ....    20
 Integral Threshold     Thresh          ....  2.500e-11 Eh
 Primitive CutOff       TCut            ....  2.500e-12 Eh

Convergence Tolerance:
 Convergence Check Mode ConvCheckMode   .... Total+1el-Energy
 Convergence forced     ConvForced      .... 0
 Energy Change          TolE            ....  1.000e-08 Eh
 1-El. energy change                    ....  1.000e-05 Eh
 DIIS Error             TolErr          ....  5.000e-07


Diagonalization of the overlap matrix:
Smallest eigenvalue                        ... 3.391e-02
Time for diagonalization                   ...    0.001 sec
Threshold for overlap eigenvalues          ... 1.000e-08
Number of eigenvalues below threshold      ... 0
Time for construction of square roots      ...    0.003 sec
Total time needed                          ...    0.004 sec

-------------------
DFT GRID GENERATION
-------------------

General Integration Accuracy     IntAcc      ...  4.340
Radial Grid Type                 RadialGrid  ... Gauss-Chebyshev
Angular Grid (max. acc.)         AngularGrid ... Lebedev-110
Angular grid pruning method      GridPruning ... 3 (G Style)
Weight generation scheme         WeightScheme... Becke
Basis function cutoff            BFCut       ...    1.0000e-11
Integration weight cutoff        WCut        ...    1.0000e-14
Grids for H and He will be reduced by one unit

# of grid points (after initial pruning)     ...   1588 (   0.0 sec)
# of grid points (after weights+screening)   ...   1588 (   0.0 sec)
nearest neighbour list constructed           ...    0.0 sec
Grid point re-assignment to atoms done       ...    0.0 sec
Grid point division into batches done        ...    0.0 sec
Reduced shell lists constructed in    0.0 sec

Total number of grid points                  ...     1588
Total number of batches                      ...       26
Average number of points per batch           ...       61
Average number of grid points per atom       ...      794
Average number of shells per batch           ...     9.63 (48.15%)
Average number of basis functions per batch  ...    28.89 (48.15%)
Average number of large shells per batch     ...     9.63 (100.00%)
Average number of large basis fcns per batch ...    28.89 (100.00%)
Maximum spatial batch extension              ...  17.62, 21.59, 21.59 au
Average spatial batch extension              ...   6.09,  8.92,  9.49 au

Time for grid setup =    0.006 sec

------------------------------
INITIAL GUESS: MODEL POTENTIAL
------------------------------
Loading Hartree-Fock densities                     ... done
Calculating cut-offs                               ... done
Setting up the integral package                    ... done
Initializing the effective Hamiltonian             ... done
Starting the Coulomb interaction                   ... done (   0.0 sec)
Reading the grid                                   ... done
Mapping shells                                     ... done
Starting the XC term evaluation                    ... done (   0.0 sec)
  promolecular density results
     # of electrons  =      1.999020552
     EX              =     -0.517788271
     EC              =     -0.027280839
     EX+EC           =     -0.545069110
Transforming the Hamiltonian                       ... done (   0.0 sec)
Diagonalizing the Hamiltonian                      ... done (   0.0 sec)
Back transforming the eigenvectors                 ... done (   0.0 sec)
Now organizing SCF variables                       ... done
                      ------------------
                      INITIAL GUESS DONE (   0.1 sec)
                      ------------------
--------------
SCF ITERATIONS
--------------
               ***  Starting incremental Fock matrix formation  ***

                         ----------------------------
                         !        ITERATION     0   !
                         ----------------------------
   Total Energy        :      -0.993501466589 Eh
   Energy Change       :      -0.993501466589 Eh
   MAX-DP              :       0.011722634939
   RMS-DP              :       0.000256962540
   Actual Damping      :       0.7000
   Actual Level Shift  :       0.2500 Eh
   Int. Num. El.       :     1.99999901 (UP=    1.99999901 DN=    0.00000000)
   Exchange            :    -0.45043127
   Correlation         :    -0.00807048


                         ----------------------------
                         !        ITERATION     1   !
                         ----------------------------
   Total Energy        :      -0.994698448017 Eh
   Energy Change       :      -0.001196981428 Eh
   MAX-DP              :       0.012436742634
   RMS-DP              :       0.000284530430
   Actual Damping      :       0.7000
   Actual Level Shift  :       0.2500 Eh
   Int. Num. El.       :     1.99999908 (UP=    1.99999908 DN=    0.00000000)
   Exchange            :    -0.45716739
   Correlation         :    -0.00812591

                               ***Turning on DIIS***

                         ----------------------------
                         !        ITERATION     2   !
                         ----------------------------
   Total Energy        :      -0.995669797470 Eh
   Energy Change       :      -0.000971349453 Eh
   MAX-DP              :       0.034213036874
   RMS-DP              :       0.000804421303
   Actual Damping      :       0.0000
   Actual Level Shift  :       0.2500 Eh
   Int. Num. El.       :     1.99999916 (UP=    1.99999916 DN=    0.00000000)
   Exchange            :    -0.46396709
   Correlation         :    -0.00818263
   DIIS-Error          :       0.017646998952


                         ----------------------------
                         !        ITERATION     3   !
                         ----------------------------
   Total Energy        :      -0.998019873455 Eh
   Energy Change       :      -0.002350075986 Eh
   MAX-DP              :       0.003560279716
   RMS-DP              :       0.000082428028
   Actual Damping      :       0.0000
   Actual Level Shift  :       0.2500 Eh
   Int. Num. El.       :     1.99999937 (UP=    1.99999937 DN=    0.00000000)
   Exchange            :    -0.48241126
   Correlation         :    -0.00833835
   DIIS-Error          :       0.001342767752
   DIIS coefficients:
     -0.03563   1.03563


                         ----------------------------
                         !        ITERATION     4   !
                         ----------------------------
   Total Energy        :      -0.998033344042 Eh
   Energy Change       :      -0.000013470587 Eh
   MAX-DP              :       0.002291617741
   RMS-DP              :       0.000051847643
   Actual Damping      :       0.0000
   Actual Level Shift  :       0.0000 Eh
   Int. Num. El.       :     1.99999939 (UP=    1.99999939 DN=    0.00000000)
   Exchange            :    -0.48329319
   Correlation         :    -0.00834702
   DIIS-Error          :       0.000493854712
   DIIS coefficients:
     -0.01199  -0.31163   1.32362


                         ----------------------------
                         !        ITERATION     5   !
                         ----------------------------
   Total Energy        :      -0.998035555460 Eh
   Energy Change       :      -0.000002211417 Eh
   MAX-DP              :       0.000082358268
   RMS-DP              :       0.000001676890
   Actual Damping      :       0.0000
   Actual Level Shift  :       0.0000 Eh
   Int. Num. El.       :     1.99999940 (UP=    1.99999940 DN=    0.00000000)
   Exchange            :    -0.48385232
   Correlation         :    -0.00835236
   DIIS-Error          :       0.000010828129
   DIIS coefficients:
      0.00062  -0.00533  -0.01084   1.01555

                 **** Energy Check signals convergence ****

               *****************************************************
               *                     SUCCESS                       *
               *           SCF CONVERGED AFTER   6 CYCLES          *
               *****************************************************

Setting up the final grid:

General Integration Accuracy     IntAcc      ...  4.670
Radial Grid Type                 RadialGrid  ... Gauss-Chebyshev
Angular Grid (max. acc.)         AngularGrid ... Lebedev-302
Angular grid pruning method      GridPruning ... 3 (G Style)
Weight generation scheme         WeightScheme... Becke
Basis function cutoff            BFCut       ...    1.0000e-11
Integration weight cutoff        WCut        ...    1.0000e-14
Grids for H and He will be reduced by one unit

# of grid points (after initial pruning)     ...   6788 (   0.0 sec)
# of grid points (after weights+screening)   ...   6788 (   0.0 sec)
nearest neighbour list constructed           ...    0.0 sec
Grid point re-assignment to atoms done       ...    0.0 sec
Grid point division into batches done        ...    0.0 sec
Reduced shell lists constructed in    0.0 sec

Total number of grid points                  ...     6788
Total number of batches                      ...      108
Average number of points per batch           ...       62
Average number of grid points per atom       ...     3394
Average number of shells per batch           ...     9.14 (45.69%)
Average number of basis functions per batch  ...    26.97 (44.95%)
Average number of large shells per batch     ...     8.64 (94.58%)
Average number of large basis fcns per batch ...    25.19 (93.40%)
Maximum spatial batch extension              ...  15.43, 15.43, 15.43 au
Average spatial batch extension              ...   4.52,  4.60,  4.61 au

Final grid set up in    0.0 sec
Final integration                            ... done (   0.0 sec)
Change in XC energy                          ...     0.000000022
Integrated number of electrons               ...     1.999999400
Previous integrated no of electrons          ...     1.999999397

----------------
TOTAL SCF ENERGY
----------------

Total Energy       :           -0.99803554 Eh             -27.15793 eV

Components:
Nuclear Repulsion  :            0.02652169 Eh               0.72169 eV
Electronic Energy  :           -1.02455722 Eh             -27.87962 eV
One Electron Energy:           -1.05223029 Eh             -28.63264 eV
Two Electron Energy:            0.02767307 Eh               0.75302 eV

Virial components:
Potential Energy   :           -1.99216553 Eh             -54.20958 eV
Kinetic Energy     :            0.99413000 Eh              27.05165 eV
Virial Ratio       :            2.00392860


DFT components:
N(Alpha)           :        1.999999399564 electrons
N(Beta)            :        0.000000000021 electrons
N(Total)           :        1.999999399585 electrons
E(X)               :       -0.483855400914 Eh       
E(C)               :       -0.008352412789 Eh       
E(XC)              :       -0.492207813703 Eh       
DFET-embed. en.    :        0.000000000000 Eh       

---------------
SCF CONVERGENCE
---------------

  Last Energy change         ...   -1.4978e-09  Tolerance :   1.0000e-08
  Last MAX-Density change    ...    4.5600e-06  Tolerance :   1.0000e-07
  Last RMS-Density change    ...    9.2188e-08  Tolerance :   5.0000e-09
  Last DIIS Error            ...    5.8770e-07  Tolerance :   5.0000e-07

             **** THE GBW FILE WAS UPDATED (H2_0_3_UB3LYP_def2-qzvpp.sp.gbw) ****
             **** DENSITY FILE WAS UPDATED (H2_0_3_UB3LYP_def2-qzvpp.sp.scfp) ****
             **** ENERGY FILE WAS UPDATED (H2_0_3_UB3LYP_def2-qzvpp.sp.en.tmp) ****
----------------------
UHF SPIN CONTAMINATION
----------------------

Warning: in a DFT calculation there is little theoretical justification to 
         calculate <S**2> as in Hartree-Fock theory. We will do it anyways
         but you should keep in mind that the values have only limited relevance

Expectation value of <S**2>     :     2.000000
Ideal value S*(S+1) for S=1.0   :     2.000000
Deviation                       :     0.000000

             **** THE GBW FILE WAS UPDATED (H2_0_3_UB3LYP_def2-qzvpp.sp.gbw) ****
             **** DENSITY FILE WAS UPDATED (H2_0_3_UB3LYP_def2-qzvpp.sp.scfp) ****
----------------
ORBITAL ENERGIES
----------------
                 SPIN UP ORBITALS
  NO   OCC          E(Eh)            E(eV) 
   0   1.0000      -0.318921        -8.6783 
   1   1.0000      -0.318921        -8.6783 
   2   0.0000       0.147343         4.0094 
   3   0.0000       0.147343         4.0094 
   4   0.0000       0.397120        10.8062 
   5   0.0000       0.397120        10.8062 
   6   0.0000       0.397120        10.8062 
   7   0.0000       0.397120        10.8062 
   8   0.0000       0.397120        10.8062 
   9   0.0000       0.397120        10.8062 
  10   0.0000       0.981189        26.6995 
  11   0.0000       0.981189        26.6995 
  12   0.0000       1.848895        50.3110 
  13   0.0000       1.848895        50.3110 
  14   0.0000       1.848895        50.3110 
  15   0.0000       1.848895        50.3110 
  16   0.0000       1.848895        50.3110 
  17   0.0000       1.848895        50.3110 
  18   0.0000       1.848895        50.3110 
  19   0.0000       1.848895        50.3110 
  20   0.0000       1.848895        50.3110 
  21   0.0000       1.848895        50.3110 
  22   0.0000       2.100982        57.1706 
  23   0.0000       2.100982        57.1706 
  24   0.0000       2.100982        57.1706 
  25   0.0000       2.100982        57.1706 
  26   0.0000       2.100982        57.1706 
  27   0.0000       2.100982        57.1706 
  28   0.0000       4.884536       132.9150 
  29   0.0000       4.884536       132.9150 
  30   0.0000       5.748366       156.4210 
  31   0.0000       5.748366       156.4210 
  32   0.0000       5.748366       156.4210 
  33   0.0000       5.748366       156.4210 
  34   0.0000       5.748366       156.4210 
  35   0.0000       5.748366       156.4210 
  36   0.0000       5.748367       156.4210 
  37   0.0000       5.748367       156.4210 
  38   0.0000       5.748367       156.4210 
  39   0.0000       5.748367       156.4210 
  40   0.0000       5.748367       156.4210 
  41   0.0000       5.748367       156.4210 
  42   0.0000       5.748367       156.4210 
  43   0.0000       5.748367       156.4210 
  44   0.0000       7.354337       200.1217 
  45   0.0000       7.354337       200.1217 
  46   0.0000       7.354337       200.1217 
  47   0.0000       7.354337       200.1217 
  48   0.0000       7.354337       200.1217 
  49   0.0000       7.354337       200.1217 
  50   0.0000       7.741709       210.6626 
  51   0.0000       7.741709       210.6626 
  52   0.0000       7.741709       210.6626 
  53   0.0000       7.741709       210.6626 
  54   0.0000       7.741709       210.6626 
  55   0.0000       7.741709       210.6626 
  56   0.0000       7.741806       210.6653 
  57   0.0000       7.741806       210.6653 
  58   0.0000       7.741806       210.6653 
  59   0.0000       7.741806       210.6653 

                 SPIN DOWN ORBITALS
  NO   OCC          E(Eh)            E(eV) 
   0   0.0000      -0.035336        -0.9615 
   1   0.0000      -0.035336        -0.9615 
   2   0.0000       0.260930         7.1003 
   3   0.0000       0.260930         7.1003 
   4   0.0000       0.522444        14.2164 
   5   0.0000       0.522444        14.2164 
   6   0.0000       0.522444        14.2164 
   7   0.0000       0.522444        14.2164 
   8   0.0000       0.522444        14.2164 
   9   0.0000       0.522444        14.2164 
  10   0.0000       1.190852        32.4047 
  11   0.0000       1.190852        32.4047 
  12   0.0000       2.008483        54.6536 
  13   0.0000       2.008483        54.6536 
  14   0.0000       2.008483        54.6536 
  15   0.0000       2.008483        54.6536 
  16   0.0000       2.008483        54.6536 
  17   0.0000       2.008483        54.6536 
  18   0.0000       2.008483        54.6536 
  19   0.0000       2.008483        54.6536 
  20   0.0000       2.008483        54.6536 
  21   0.0000       2.008483        54.6536 
  22   0.0000       2.317821        63.0711 
  23   0.0000       2.317821        63.0711 
  24   0.0000       2.317821        63.0711 
  25   0.0000       2.317821        63.0711 
  26   0.0000       2.317821        63.0711 
  27   0.0000       2.317821        63.0711 
  28   0.0000       5.309790       144.4867 
  29   0.0000       5.309790       144.4867 
  30   0.0000       5.964298       162.2968 
  31   0.0000       5.964298       162.2968 
  32   0.0000       5.964298       162.2968 
  33   0.0000       5.964298       162.2968 
  34   0.0000       5.964298       162.2968 
  35   0.0000       5.964298       162.2968 
  36   0.0000       5.964304       162.2970 
  37   0.0000       5.964304       162.2970 
  38   0.0000       5.964304       162.2970 
  39   0.0000       5.964304       162.2970 
  40   0.0000       5.964304       162.2970 
  41   0.0000       5.964304       162.2970 
  42   0.0000       5.964304       162.2970 
  43   0.0000       5.964304       162.2970 
  44   0.0000       7.694879       209.3883 
  45   0.0000       7.694879       209.3883 
  46   0.0000       7.694879       209.3883 
  47   0.0000       7.694879       209.3883 
  48   0.0000       7.694879       209.3883 
  49   0.0000       7.694879       209.3883 
  50   0.0000       8.033253       218.5959 
  51   0.0000       8.033253       218.5959 
  52   0.0000       8.033253       218.5959 
  53   0.0000       8.033253       218.5959 
  54   0.0000       8.033253       218.5959 
  55   0.0000       8.033253       218.5959 
  56   0.0000       8.033447       218.6012 
  57   0.0000       8.033447       218.6012 
  58   0.0000       8.033447       218.6012 
  59   0.0000       8.033447       218.6012 

                    ********************************
                    * MULLIKEN POPULATION ANALYSIS *
                    ********************************

--------------------------------------------
MULLIKEN ATOMIC CHARGES AND SPIN POPULATIONS
--------------------------------------------
   0 H :    0.000000    1.000000
   1 H :    0.000000    1.000000
Sum of atomic charges         :    0.0000000
Sum of atomic spin populations:    2.0000000

-----------------------------------------------------
MULLIKEN REDUCED ORBITAL CHARGES AND SPIN POPULATIONS
-----------------------------------------------------
CHARGE
  0 H s       :     1.000000  s :     1.000000
      pz      :     0.000000  p :     0.000000
      px      :     0.000000
      py      :     0.000000
      dz2     :     0.000000  d :     0.000000
      dxz     :     0.000000
      dyz     :     0.000000
      dx2y2   :     0.000000
      dxy     :     0.000000
      f0      :     0.000000  f :     0.000000
      f+1     :     0.000000
      f-1     :     0.000000
      f+2     :     0.000000
      f-2     :     0.000000
      f+3     :     0.000000
      f-3     :     0.000000
  1 H s       :     1.000000  s :     1.000000
      pz      :     0.000000  p :     0.000000
      px      :     0.000000
      py      :     0.000000
      dz2     :     0.000000  d :     0.000000
      dxz     :     0.000000
      dyz     :     0.000000
      dx2y2   :     0.000000
      dxy     :     0.000000
      f0      :     0.000000  f :     0.000000
      f+1     :     0.000000
      f-1     :     0.000000
      f+2     :     0.000000
      f-2     :     0.000000
      f+3     :     0.000000
      f-3     :     0.000000

SPIN
  0 H s       :     1.000000  s :     1.000000
      pz      :     0.000000  p :     0.000000
      px      :     0.000000
      py      :     0.000000
      dz2     :     0.000000  d :     0.000000
      dxz     :     0.000000
      dyz     :     0.000000
      dx2y2   :     0.000000
      dxy     :     0.000000
      f0      :     0.000000  f :     0.000000
      f+1     :     0.000000
      f-1     :     0.000000
      f+2     :     0.000000
      f-2     :     0.000000
      f+3     :     0.000000
      f-3     :     0.000000
  1 H s       :     1.000000  s :     1.000000
      pz      :     0.000000  p :     0.000000
      px      :     0.000000
      py      :     0.000000
      dz2     :     0.000000  d :     0.000000
      dxz     :     0.000000
      dyz     :     0.000000
      dx2y2   :     0.000000
      dxy     :     0.000000
      f0      :     0.000000  f :     0.000000
      f+1     :     0.000000
      f-1     :     0.000000
      f+2     :     0.000000
      f-2     :     0.000000
      f+3     :     0.000000
      f-3     :     0.000000

------------------------
MULLIKEN OVERLAP CHARGES
------------------------



                     *******************************
                     * LOEWDIN POPULATION ANALYSIS *
                     *******************************

-------------------------------------------
LOEWDIN ATOMIC CHARGES AND SPIN POPULATIONS
-------------------------------------------
   0 H :    0.000000    1.000000
   1 H :    0.000000    1.000000

----------------------------------------------------
LOEWDIN REDUCED ORBITAL CHARGES AND SPIN POPULATIONS
----------------------------------------------------
CHARGE
  0 H s       :     1.000000  s :     1.000000
      pz      :     0.000000  p :     0.000000
      px      :     0.000000
      py      :     0.000000
      dz2     :     0.000000  d :     0.000000
      dxz     :     0.000000
      dyz     :     0.000000
      dx2y2   :     0.000000
      dxy     :     0.000000
      f0      :     0.000000  f :     0.000000
      f+1     :     0.000000
      f-1     :     0.000000
      f+2     :     0.000000
      f-2     :     0.000000
      f+3     :     0.000000
      f-3     :     0.000000
  1 H s       :     1.000000  s :     1.000000
      pz      :     0.000000  p :     0.000000
      px      :     0.000000
      py      :     0.000000
      dz2     :     0.000000  d :     0.000000
      dxz     :     0.000000
      dyz     :     0.000000
      dx2y2   :     0.000000
      dxy     :     0.000000
      f0      :     0.000000  f :     0.000000
      f+1     :     0.000000
      f-1     :     0.000000
      f+2     :     0.000000
      f-2     :     0.000000
      f+3     :     0.000000
      f-3     :     0.000000

SPIN
  0 H s       :     1.000000  s :     1.000000
      pz      :     0.000000  p :     0.000000
      px      :     0.000000
      py      :     0.000000
      dz2     :     0.000000  d :     0.000000
      dxz     :     0.000000
      dyz     :     0.000000
      dx2y2   :     0.000000
      dxy     :     0.000000
      f0      :     0.000000  f :     0.000000
      f+1     :     0.000000
      f-1     :     0.000000
      f+2     :     0.000000
      f-2     :     0.000000
      f+3     :     0.000000
      f-3     :     0.000000
  1 H s       :     1.000000  s :     1.000000
      pz      :     0.000000  p :     0.000000
      px      :     0.000000
      py      :     0.000000
      dz2     :     0.000000  d :     0.000000
      dxz     :     0.000000
      dyz     :     0.000000
      dx2y2   :     0.000000
      dxy     :     0.000000
      f0      :     0.000000  f :     0.000000
      f+1     :     0.000000
      f-1     :     0.000000
      f+2     :     0.000000
      f-2     :     0.000000
      f+3     :     0.000000
      f-3     :     0.000000

---------------------------------
LOEWDIN BOND ORDERS (THRESH 0.050000)
---------------------------------


------------------------------------------
LOEWDIN REDUCED ORBITAL POPULATIONS PER MO
-------------------------------------------
THRESHOLD FOR PRINTING IS 0.1%
SPIN UP
                      0         1         2         3         4         5   
                  -0.31892  -0.31892   0.14734   0.14734   0.39712   0.39712
                   1.00000   1.00000   0.00000   0.00000   0.00000   0.00000
                  --------  --------  --------  --------  --------  --------
 0 H  s               0.0     100.0     100.0       0.0       0.0       0.0
 0 H  pz              0.0       0.0       0.0       0.0      51.0       0.1
 0 H  py              0.0       0.0       0.0       0.0      47.8       0.2
 1 H  s             100.0       0.0       0.0     100.0       0.0       0.0
 1 H  pz              0.0       0.0       0.0       0.0       0.0      66.6
 1 H  py              0.0       0.0       0.0       0.0       1.2      33.1

                      6         7         8         9        10        11   
                   0.39712   0.39712   0.39712   0.39712   0.98119   0.98119
                   0.00000   0.00000   0.00000   0.00000   0.00000   0.00000
                  --------  --------  --------  --------  --------  --------
 0 H  s               0.0       0.0       0.0       0.0       0.0     100.0
 0 H  pz             35.6      13.3       0.0       0.0       0.0       0.0
 0 H  px              0.0       0.0       0.0     100.0       0.0       0.0
 0 H  py             28.1      24.0       0.0       0.0       0.0       0.0
 1 H  s               0.0       0.0       0.0       0.0     100.0       0.0
 1 H  pz             12.0      21.4       0.0       0.0       0.0       0.0
 1 H  px              0.0       0.0     100.0       0.0       0.0       0.0
 1 H  py             24.3      41.4       0.0       0.0       0.0       0.0

                     12        13        14        15        16        17   
                   1.84889   1.84889   1.84889   1.84889   1.84889   1.84889
                   0.00000   0.00000   0.00000   0.00000   0.00000   0.00000
                  --------  --------  --------  --------  --------  --------
 0 H  dxz             0.0       0.0       0.0      68.6      31.4       0.0
 0 H  dyz             0.0     100.0       0.0       0.0       0.0       0.0
 0 H  dxy             0.0       0.0       0.0      31.4      68.6       0.0
 1 H  dxz             0.0       0.0       1.4       0.0       0.0      98.6
 1 H  dyz           100.0       0.0       0.0       0.0       0.0       0.0
 1 H  dxy             0.0       0.0      98.6       0.0       0.0       1.4

                     18        19        20        21        22        23   
                   1.84889   1.84889   1.84889   1.84889   2.10098   2.10098
                   0.00000   0.00000   0.00000   0.00000   0.00000   0.00000
                  --------  --------  --------  --------  --------  --------
 0 H  pz              0.0       0.0       0.0       0.0      34.3       2.6
 0 H  py              0.0       0.0       0.0       0.0       3.3      82.4
 0 H  dz2            27.4      47.6      25.0       0.0       0.0       0.0
 0 H  dx2y2           9.1      15.9      75.0       0.0       0.0       0.0
 1 H  pz              0.0       0.0       0.0       0.0       0.5      13.5
 1 H  py              0.0       0.0       0.0       0.0      61.9       1.5
 1 H  dz2            47.6      27.4       0.0      25.0       0.0       0.0
 1 H  dx2y2          15.9       9.1       0.0      75.0       0.0       0.0

                     24        25        26        27        28        29   
                   2.10098   2.10098   2.10098   2.10098   4.88454   4.88454
                   0.00000   0.00000   0.00000   0.00000   0.00000   0.00000
                  --------  --------  --------  --------  --------  --------
 0 H  s               0.0       0.0       0.0       0.0     100.0       0.0
 0 H  pz              4.5      58.6       0.0       0.0       0.0       0.0
 0 H  px              0.0       0.0       0.0     100.0       0.0       0.0
 0 H  py             12.1       2.2       0.0       0.0       0.0       0.0
 1 H  s               0.0       0.0       0.0       0.0       0.0     100.0
 1 H  pz             80.9       5.1       0.0       0.0       0.0       0.0
 1 H  px              0.0       0.0     100.0       0.0       0.0       0.0
 1 H  py              2.5      34.1       0.0       0.0       0.0       0.0

                     30        31        32        33        34        35   
                   5.74837   5.74837   5.74837   5.74837   5.74837   5.74837
                   0.00000   0.00000   0.00000   0.00000   0.00000   0.00000
                  --------  --------  --------  --------  --------  --------
 0 H  f+1             0.6      61.9       0.0       0.0       0.0       0.0
 0 H  f-1             0.0       0.0      54.2       6.2       0.2       2.0
 0 H  f+2             0.0       0.0      12.8      56.9       0.2      30.1
 0 H  f+3             0.3      37.2       0.0       0.0       0.0       0.0
 0 H  f-3             0.0       0.0      32.4       3.7       0.1       1.2
 1 H  f+1            61.9       0.6       0.0       0.0       0.0       0.0
 1 H  f-1             0.0       0.0       0.1       6.2      42.2      14.0
 1 H  f+2             0.0       0.0       0.5      23.2      32.0      44.3
 1 H  f+3            37.2       0.3       0.0       0.0       0.0       0.0
 1 H  f-3             0.0       0.0       0.0       3.7      25.3       8.4

                     36        37        38        39        40        41   
                   5.74837   5.74837   5.74837   5.74837   5.74837   5.74837
                   0.00000   0.00000   0.00000   0.00000   0.00000   0.00000
                  --------  --------  --------  --------  --------  --------
 0 H  f0              1.1      90.6       0.3       8.0       0.0       0.0
 0 H  f+1             0.0       0.0       0.0       0.0      37.5       0.0
 0 H  f-1             0.2       2.8       0.1      34.4       0.0       0.0
 0 H  f+3             0.0       0.0       0.0       0.0      62.5       0.0
 0 H  f-3             0.3       4.7       0.2      57.4       0.0       0.0
 1 H  f0             92.6       1.7       5.5       0.2       0.0       0.0
 1 H  f+1             0.0       0.0       0.0       0.0       0.0      37.5
 1 H  f-1             2.2       0.1      35.2       0.0       0.0       0.0
 1 H  f+3             0.0       0.0       0.0       0.0       0.0      62.5
 1 H  f-3             3.7       0.1      58.7       0.0       0.0       0.0

                     42        43        44        45        46        47   
                   5.74837   5.74837   7.35434   7.35434   7.35434   7.35434
                   0.00000   0.00000   0.00000   0.00000   0.00000   0.00000
                  --------  --------  --------  --------  --------  --------
 0 H  pz              0.0       0.0      44.2      53.7       0.1       2.1
 0 H  py              0.0       0.0       8.2       1.5      24.9      65.5
 0 H  f-2            99.8       0.2       0.0       0.0       0.0       0.0
 1 H  pz              0.0       0.0       9.8       3.0      72.2      15.0
 1 H  py              0.0       0.0      37.8      41.8       2.8      17.5
 1 H  f-2             0.2      99.8       0.0       0.0       0.0       0.0

                     48        49        50        51        52        53   
                   7.35434   7.35434   7.74171   7.74171   7.74171   7.74171
                   0.00000   0.00000   0.00000   0.00000   0.00000   0.00000
                  --------  --------  --------  --------  --------  --------
 0 H  px              0.0     100.0       0.0       0.0       0.0       0.0
 0 H  dxz             0.0       0.0       0.0       0.0      41.2      11.4
 0 H  dyz             0.0       0.0      96.4       3.6       0.0       0.0
 0 H  dxy             0.0       0.0       0.0       0.0       6.9      74.9
 1 H  px            100.0       0.0       0.0       0.0       0.0       0.0
 1 H  dxz             0.0       0.0       0.0       0.0      50.0       0.7
 1 H  dyz             0.0       0.0       3.6      96.4       0.0       0.0
 1 H  dxy             0.0       0.0       0.0       0.0       1.9      13.0

                     54        55        56        57        58        59   
                   7.74171   7.74171   7.74181   7.74181   7.74181   7.74181
                   0.00000   0.00000   0.00000   0.00000   0.00000   0.00000
                  --------  --------  --------  --------  --------  --------
 0 H  dz2             0.0       0.0      73.7       1.3       0.0      25.0
 0 H  dxz             2.1      45.4       0.0       0.0       0.0       0.0
 0 H  dx2y2           0.0       0.0      24.6       0.4       0.0      75.0
 0 H  dxy            17.3       0.9       0.0       0.0       0.0       0.0
 1 H  dz2             0.0       0.0       1.3      73.7      25.0       0.0
 1 H  dxz             1.3      48.0       0.0       0.0       0.0       0.0
 1 H  dx2y2           0.0       0.0       0.4      24.6      75.0       0.0
 1 H  dxy            79.3       5.8       0.0       0.0       0.0       0.0


SPIN DOWN
                      0         1         2         3         4         5   
                  -0.03534  -0.03534   0.26093   0.26093   0.52244   0.52244
                   0.00000   0.00000   0.00000   0.00000   0.00000   0.00000
                  --------  --------  --------  --------  --------  --------
 0 H  s               0.6      99.4     100.0       0.0       0.0       0.0
 0 H  pz              0.0       0.0       0.0       0.0       0.0       0.1
 0 H  py              0.0       0.0       0.0       0.0       0.0      90.5
 1 H  s              99.4       0.6       0.0     100.0       0.0       0.0
 1 H  pz              0.0       0.0       0.0       0.0       6.7       8.7
 1 H  py              0.0       0.0       0.0       0.0      93.3       0.6

                      6         7         8         9        10        11   
                   0.52244   0.52244   0.52244   0.52244   1.19085   1.19085
                   0.00000   0.00000   0.00000   0.00000   0.00000   0.00000
                  --------  --------  --------  --------  --------  --------
 0 H  s               0.0       0.0       0.0       0.0      99.9       0.1
 0 H  pz              0.3      99.6       0.0       0.0       0.0       0.0
 0 H  px              0.0       0.0     100.0       0.0       0.0       0.0
 0 H  py              9.5       0.0       0.0       0.0       0.0       0.0
 1 H  s               0.0       0.0       0.0       0.0       0.1      99.9
 1 H  pz             84.2       0.4       0.0       0.0       0.0       0.0
 1 H  px              0.0       0.0       0.0     100.0       0.0       0.0
 1 H  py              6.0       0.0       0.0       0.0       0.0       0.0

                     12        13        14        15        16        17   
                   2.00848   2.00848   2.00848   2.00848   2.00848   2.00848
                   0.00000   0.00000   0.00000   0.00000   0.00000   0.00000
                  --------  --------  --------  --------  --------  --------
 0 H  dxz             0.0       0.0      38.9      61.1       0.0       0.0
 0 H  dyz             0.0       0.0       0.0       0.0       0.0     100.0
 0 H  dxy             0.0       0.0      61.1      38.9       0.0       0.0
 1 H  dxz             0.0     100.0       0.0       0.0       0.0       0.0
 1 H  dyz             0.0       0.0       0.0       0.0     100.0       0.0
 1 H  dxy            99.9       0.0       0.0       0.0       0.0       0.0

                     18        19        20        21        22        23   
                   2.00848   2.00848   2.00848   2.00848   2.31782   2.31782
                   0.00000   0.00000   0.00000   0.00000   0.00000   0.00000
                  --------  --------  --------  --------  --------  --------
 0 H  pz              0.0       0.0       0.0       0.0       4.8      21.0
 0 H  py              0.0       0.0       0.0       0.0       1.1      78.9
 0 H  dz2             0.0      25.0      75.0       0.0       0.0       0.0
 0 H  dx2y2           0.1      74.9      25.0       0.0       0.0       0.0
 1 H  pz              0.0       0.0       0.0       0.0       6.8       0.1
 1 H  py              0.0       0.0       0.0       0.0      87.3       0.0
 1 H  dz2            25.0       0.0       0.0      75.0       0.0       0.0
 1 H  dx2y2          74.9       0.1       0.0      25.0       0.0       0.0

                     24        25        26        27        28        29   
                   2.31782   2.31782   2.31782   2.31782   5.30979   5.30979
                   0.00000   0.00000   0.00000   0.00000   0.00000   0.00000
                  --------  --------  --------  --------  --------  --------
 0 H  s               0.0       0.0       0.0       0.0      99.9       0.1
 0 H  pz              0.0      74.2       0.0       0.0       0.0       0.0
 0 H  px              0.0       0.0       0.0     100.0       0.0       0.0
 0 H  py              0.1      19.8       0.0       0.0       0.0       0.0
 1 H  s               0.0       0.0       0.0       0.0       0.1      99.9
 1 H  pz             92.4       0.7       0.0       0.0       0.0       0.0
 1 H  px              0.0       0.0     100.0       0.0       0.0       0.0
 1 H  py              7.5       5.2       0.0       0.0       0.0       0.0

                     30        31        32        33        34        35   
                   5.96430   5.96430   5.96430   5.96430   5.96430   5.96430
                   0.00000   0.00000   0.00000   0.00000   0.00000   0.00000
                  --------  --------  --------  --------  --------  --------
 0 H  f+1             0.0       0.0       0.0       0.0       0.0      62.5
 0 H  f-1            50.1       5.6       0.0       6.8       0.0       0.0
 0 H  f+2             4.1      87.0       0.1       8.8       0.0       0.0
 0 H  f+3             0.0       0.0       0.0       0.0       0.0      37.5
 0 H  f-3            30.0       3.4       0.0       4.1       0.0       0.0
 1 H  f+1             0.0       0.0       0.0       0.0      62.5       0.0
 1 H  f-1             6.9       1.8      23.5      30.3       0.0       0.0
 1 H  f+2             4.8       1.1      62.2      31.8       0.0       0.0
 1 H  f+3             0.0       0.0       0.0       0.0      37.5       0.0
 1 H  f-3             4.1       1.1      14.1      18.2       0.0       0.0

                     36        37        38        39        40        41   
                   5.96430   5.96430   5.96430   5.96430   5.96430   5.96430
                   0.00000   0.00000   0.00000   0.00000   0.00000   0.00000
                  --------  --------  --------  --------  --------  --------
 0 H  f0              0.0       0.0       8.8      87.2       2.7       1.3
 0 H  f+1            15.1      22.4       0.0       0.0       0.0       0.0
 0 H  f-1             0.0       0.0       0.0       0.5      31.9       5.1
 0 H  f+3            25.1      37.4       0.0       0.0       0.0       0.0
 0 H  f-3             0.0       0.0       0.0       0.9      53.2       8.5
 1 H  f0              0.0       0.0      90.5       9.2       0.0       0.2
 1 H  f+1            22.4      15.1       0.0       0.0       0.0       0.0
 1 H  f-1             0.0       0.0       0.3       0.8       4.6      31.8
 1 H  f+3            37.4      25.1       0.0       0.0       0.0       0.0
 1 H  f-3             0.0       0.0       0.4       1.4       7.6      53.1

                     42        43        44        45        46        47   
                   5.96430   5.96430   7.69488   7.69488   7.69488   7.69488
                   0.00000   0.00000   0.00000   0.00000   0.00000   0.00000
                  --------  --------  --------  --------  --------  --------
 0 H  pz              0.0       0.0       1.0       5.2      61.1      32.6
 0 H  py              0.0       0.0      74.2      21.6       3.6       0.6
 0 H  f-2             4.1      95.9       0.0       0.0       0.0       0.0
 1 H  pz              0.0       0.0      13.1      31.0      26.3      29.6
 1 H  py              0.0       0.0      11.7      42.2       9.0      37.1
 1 H  f-2            95.9       4.1       0.0       0.0       0.0       0.0

                     48        49        50        51        52        53   
                   7.69488   7.69488   8.03325   8.03325   8.03325   8.03325
                   0.00000   0.00000   0.00000   0.00000   0.00000   0.00000
                  --------  --------  --------  --------  --------  --------
 0 H  px            100.0       0.0       0.0       0.0       0.0       0.0
 0 H  dxz             0.0       0.0      14.2      10.6      58.7      16.5
 0 H  dxy             0.0       0.0      85.0       0.6      13.3       1.2
 1 H  px              0.0     100.0       0.0       0.0       0.0       0.0
 1 H  dxz             0.0       0.0       0.7      12.4      26.9      59.9
 1 H  dxy             0.0       0.0       0.1      76.4       1.2      22.4

                     54        55        56        57        58        59   
                   8.03325   8.03325   8.03345   8.03345   8.03345   8.03345
                   0.00000   0.00000   0.00000   0.00000   0.00000   0.00000
                  --------  --------  --------  --------  --------  --------
 0 H  dz2             0.0       0.0      24.9       0.1      75.0       0.0
 0 H  dyz             6.7      93.3       0.0       0.0       0.0       0.0
 0 H  dx2y2           0.0       0.0      74.8       0.2      25.0       0.0
 1 H  dz2             0.0       0.0       0.1      24.9       0.0      75.0
 1 H  dyz            93.3       6.7       0.0       0.0       0.0       0.0
 1 H  dx2y2           0.0       0.0       0.2      74.8       0.0      25.0



                      *****************************
                      * MAYER POPULATION ANALYSIS *
                      *****************************

  NA   - Mulliken gross atomic population
  ZA   - Total nuclear charge
  QA   - Mulliken gross atomic charge
  VA   - Mayer's total valence
  BVA  - Mayer's bonded valence
  FA   - Mayer's free valence

  ATOM       NA         ZA         QA         VA         BVA        FA
  0 H      1.0000     1.0000     0.0000     1.0000     0.0000     1.0000
  1 H      1.0000     1.0000     0.0000     1.0000     0.0000     1.0000

  Mayer bond orders larger than 0.100000


Local spin analysis not attempted because no beta electrons available
-------
TIMINGS
-------

Total SCF time: 0 days 0 hours 0 min 1 sec 

Total time                  ....       1.124 sec
Sum of individual times     ....       0.928 sec  ( 82.6%)

Fock matrix formation       ....       0.745 sec  ( 66.2%)
  XC integration            ....       0.136 sec  ( 18.3% of F)
    Basis function eval.    ....       0.016 sec  ( 12.0% of XC)
    Density eval.           ....       0.019 sec  ( 14.3% of XC)
    XC-Functional eval.     ....       0.029 sec  ( 21.6% of XC)
    XC-Potential eval.      ....       0.018 sec  ( 13.2% of XC)
Diagonalization             ....       0.008 sec  (  0.7%)
Density matrix formation    ....       0.000 sec  (  0.0%)
Population analysis         ....       0.030 sec  (  2.6%)
Initial guess               ....       0.099 sec  (  8.8%)
Orbital Transformation      ....       0.000 sec  (  0.0%)
Orbital Orthonormalization  ....       0.000 sec  (  0.0%)
DIIS solution               ....       0.007 sec  (  0.6%)
Grid generation             ....       0.040 sec  (  3.6%)

-------------------------   --------------------
FINAL SINGLE POINT ENERGY        -0.998035535159
-------------------------   --------------------

Storing actual gbw-file in H2_0_3_UB3LYP_def2-qzvpp.sp.001.gbw ... done

                            ***************************************
                            *     ORCA property calculations      *
                            ***************************************

                                    ---------------------
                                    Active property flags
                                    ---------------------
   (+) Dipole Moment


------------------------------------------------------------------------------
                       ORCA ELECTRIC PROPERTIES CALCULATION
------------------------------------------------------------------------------

Dipole Moment Calculation                       ... on
Quadrupole Moment Calculation                   ... off
Polarizability Calculation                      ... off
GBWName                                         ... H2_0_3_UB3LYP_def2-qzvpp.sp.gbw
Electron density file                           ... H2_0_3_UB3LYP_def2-qzvpp.sp.scfp
The origin for moment calculation is the CENTER OF MASS  = (18.852497,  0.000000  0.000000)

-------------
DIPOLE MOMENT
-------------
                                X             Y             Z
Electronic contribution:      0.00000      -0.00000      -0.00000
Nuclear contribution   :     -0.00000       0.00000       0.00000
                        -----------------------------------------
Total Dipole Moment    :      0.00000      -0.00000      -0.00000
                        -----------------------------------------
Magnitude (a.u.)       :      0.00000
Magnitude (Debye)      :      0.00000



--------------------
Rotational spectrum 
--------------------
 
Rotational constants in cm-1:     0.000000     0.084017     0.084017 
Rotational constants in MHz :     0.000000  2518.761623  2518.761623 

 Dipole components along the rotational axes: 
x,y,z [a.u.] :     0.000000    -0.000000    -0.000000 
x,y,z [Debye]:     0.000000    -0.000000    -0.000000 

 

         *************************************************************
                                TRAJECTORY STEP   2
                RHH  :  16.43574799
         *************************************************************
---------------------------------
CARTESIAN COORDINATES (ANGSTROEM)
---------------------------------
  H      0.000000    0.000000    0.000000
  H     16.435748    0.000000    0.000000

----------------------------
CARTESIAN COORDINATES (A.U.)
----------------------------
  NO LB      ZA    FRAG     MASS         X           Y           Z
   0 H     1.0000    0     1.008    0.000000    0.000000    0.000000
   1 H     1.0000    0     1.008   31.059063    0.000000    0.000000

--------------------------------
INTERNAL COORDINATES (ANGSTROEM)
--------------------------------
 H      0   0   0     0.000000000000     0.00000000     0.00000000
 H      1   0   0    16.435747993727     0.00000000     0.00000000

---------------------------
INTERNAL COORDINATES (A.U.)
---------------------------
 H      0   0   0     0.000000000000     0.00000000     0.00000000
 H      1   0   0    31.059062514290     0.00000000     0.00000000


Diagonalization of the overlap matrix:
Smallest eigenvalue                        ... 3.391e-02
Time for diagonalization                   ...    0.002 sec
Threshold for overlap eigenvalues          ... 1.000e-08
Number of eigenvalues below threshold      ... 0
Time for construction of square roots      ...    0.002 sec
Total time needed                          ...    0.003 sec

-------------------
DFT GRID GENERATION
-------------------

General Integration Accuracy     IntAcc      ...  4.340
Radial Grid Type                 RadialGrid  ... Gauss-Chebyshev
Angular Grid (max. acc.)         AngularGrid ... Lebedev-110
Angular grid pruning method      GridPruning ... 3 (G Style)
Weight generation scheme         WeightScheme... Becke
Basis function cutoff            BFCut       ...    1.0000e-11
Integration weight cutoff        WCut        ...    1.0000e-14
Grids for H and He will be reduced by one unit

# of grid points (after initial pruning)     ...   1588 (   0.0 sec)
# of grid points (after weights+screening)   ...   1588 (   0.0 sec)
nearest neighbour list constructed           ...    0.0 sec
Grid point re-assignment to atoms done       ...    0.0 sec
Grid point division into batches done        ...    0.0 sec
Reduced shell lists constructed in    0.0 sec

Total number of grid points                  ...     1588
Total number of batches                      ...       26
Average number of points per batch           ...       61
Average number of grid points per atom       ...      794
Average number of shells per batch           ...     9.70 (48.52%)
Average number of basis functions per batch  ...    28.96 (48.27%)
Average number of large shells per batch     ...     9.63 (99.24%)
Average number of large basis fcns per batch ...    28.89 (99.74%)
Maximum spatial batch extension              ...  17.62, 21.59, 21.59 au
Average spatial batch extension              ...   6.09,  8.92,  9.49 au

Time for grid setup =    0.006 sec

--------------
SCF ITERATIONS
--------------
ITER       Energy         Delta-E        Max-DP      RMS-DP      [F,P]     Damp
               ***  Starting incremental Fock matrix formation  ***
  0     -0.9980354273   0.000000000000 0.00000122  0.00000002  0.0000006 0.7000
                 **** Energy Check signals convergence ****

               *****************************************************
               *                     SUCCESS                       *
               *           SCF CONVERGED AFTER   1 CYCLES          *
               *****************************************************

Setting up the final grid:

General Integration Accuracy     IntAcc      ...  4.670
Radial Grid Type                 RadialGrid  ... Gauss-Chebyshev
Angular Grid (max. acc.)         AngularGrid ... Lebedev-302
Angular grid pruning method      GridPruning ... 3 (G Style)
Weight generation scheme         WeightScheme... Becke
Basis function cutoff            BFCut       ...    1.0000e-11
Integration weight cutoff        WCut        ...    1.0000e-14
Grids for H and He will be reduced by one unit

# of grid points (after initial pruning)     ...   6788 (   0.0 sec)
# of grid points (after weights+screening)   ...   6788 (   0.0 sec)
nearest neighbour list constructed           ...    0.0 sec
Grid point re-assignment to atoms done       ...    0.0 sec
Grid point division into batches done        ...    0.0 sec
Reduced shell lists constructed in    0.0 sec

Total number of grid points                  ...     6788
Total number of batches                      ...      108
Average number of points per batch           ...       62
Average number of grid points per atom       ...     3394
Average number of shells per batch           ...     9.16 (45.78%)
Average number of basis functions per batch  ...    26.99 (44.98%)
Average number of large shells per batch     ...     8.64 (94.39%)
Average number of large basis fcns per batch ...    25.19 (93.34%)
Maximum spatial batch extension              ...  15.43, 15.43, 15.43 au
Average spatial batch extension              ...   4.51,  4.60,  4.61 au

Final grid set up in    0.0 sec
Final integration                            ... done (   0.0 sec)
Change in XC energy                          ...    -0.000000028
Integrated number of electrons               ...     1.999997525
Previous integrated no of electrons          ...     1.999997520
Total Energy       :           -0.99803546 Eh             -27.15793 eV
  Last Energy change         ...   -1.7434e-12  Tolerance :   1.0000e-08
  Last MAX-Density change    ...    5.0816e-07  Tolerance :   1.0000e-07
             **** THE GBW FILE WAS UPDATED (H2_0_3_UB3LYP_def2-qzvpp.sp.gbw) ****
             **** DENSITY FILE WAS UPDATED (H2_0_3_UB3LYP_def2-qzvpp.sp.scfp) ****
             **** ENERGY FILE WAS UPDATED (H2_0_3_UB3LYP_def2-qzvpp.sp.en.tmp) ****
----------------------
UHF SPIN CONTAMINATION
----------------------

Warning: in a DFT calculation there is little theoretical justification to 
         calculate <S**2> as in Hartree-Fock theory. We will do it anyways
         but you should keep in mind that the values have only limited relevance

Expectation value of <S**2>     :     2.000000
Ideal value S*(S+1) for S=1.0   :     2.000000
Deviation                       :     0.000000

             **** THE GBW FILE WAS UPDATED (H2_0_3_UB3LYP_def2-qzvpp.sp.gbw) ****
             **** DENSITY FILE WAS UPDATED (H2_0_3_UB3LYP_def2-qzvpp.sp.scfp) ****
Local spin analysis not attempted because no beta electrons available
Total SCF time: 0 days 0 hours 0 min 0 sec 

-------------------------   --------------------
FINAL SINGLE POINT ENERGY        -0.998035455357
-------------------------   --------------------

Storing actual gbw-file in H2_0_3_UB3LYP_def2-qzvpp.sp.002.gbw ... done

                            ***************************************
                            *     ORCA property calculations      *
                            ***************************************

                                    ---------------------
                                    Active property flags
                                    ---------------------
   (+) Dipole Moment


------------------------------------------------------------------------------
                       ORCA ELECTRIC PROPERTIES CALCULATION
------------------------------------------------------------------------------

Dipole Moment Calculation                       ... on
Quadrupole Moment Calculation                   ... off
Polarizability Calculation                      ... off
GBWName                                         ... H2_0_3_UB3LYP_def2-qzvpp.sp.gbw
Electron density file                           ... H2_0_3_UB3LYP_def2-qzvpp.sp.scfp
The origin for moment calculation is the CENTER OF MASS  = (15.529531,  0.000000  0.000000)

-------------
DIPOLE MOMENT
-------------
                                X             Y             Z
Electronic contribution:      0.00000      -0.00000      -0.00000
Nuclear contribution   :      0.00000       0.00000       0.00000
                        -----------------------------------------
Total Dipole Moment    :      0.00000      -0.00000      -0.00000
                        -----------------------------------------
Magnitude (a.u.)       :      0.00000
Magnitude (Debye)      :      0.00000



--------------------
Rotational spectrum 
--------------------
 
Rotational constants in cm-1:     0.000000     0.123819     0.123819 
Rotational constants in MHz :     0.000000  3712.001304  3712.001304 

 Dipole components along the rotational axes: 
x,y,z [a.u.] :     0.000000    -0.000000    -0.000000 
x,y,z [Debye]:     0.000000    -0.000000    -0.000000 

 

         *************************************************************
                                TRAJECTORY STEP   3
                RHH  :  13.53876180
         *************************************************************
---------------------------------
CARTESIAN COORDINATES (ANGSTROEM)
---------------------------------
  H      0.000000    0.000000    0.000000
  H     13.538762    0.000000    0.000000

----------------------------
CARTESIAN COORDINATES (A.U.)
----------------------------
  NO LB      ZA    FRAG     MASS         X           Y           Z
   0 H     1.0000    0     1.008    0.000000    0.000000    0.000000
   1 H     1.0000    0     1.008   25.584552    0.000000    0.000000

--------------------------------
INTERNAL COORDINATES (ANGSTROEM)
--------------------------------
 H      0   0   0     0.000000000000     0.00000000     0.00000000
 H      1   0   0    13.538761800225     0.00000000     0.00000000

---------------------------
INTERNAL COORDINATES (A.U.)
---------------------------
 H      0   0   0     0.000000000000     0.00000000     0.00000000
 H      1   0   0    25.584551994821     0.00000000     0.00000000


Diagonalization of the overlap matrix:
Smallest eigenvalue                        ... 3.391e-02
Time for diagonalization                   ...    0.002 sec
Threshold for overlap eigenvalues          ... 1.000e-08
Number of eigenvalues below threshold      ... 0
Time for construction of square roots      ...    0.001 sec
Total time needed                          ...    0.003 sec

-------------------
DFT GRID GENERATION
-------------------

General Integration Accuracy     IntAcc      ...  4.340
Radial Grid Type                 RadialGrid  ... Gauss-Chebyshev
Angular Grid (max. acc.)         AngularGrid ... Lebedev-110
Angular grid pruning method      GridPruning ... 3 (G Style)
Weight generation scheme         WeightScheme... Becke
Basis function cutoff            BFCut       ...    1.0000e-11
Integration weight cutoff        WCut        ...    1.0000e-14
Grids for H and He will be reduced by one unit

# of grid points (after initial pruning)     ...   1588 (   0.0 sec)
# of grid points (after weights+screening)   ...   1588 (   0.0 sec)
nearest neighbour list constructed           ...    0.0 sec
Grid point re-assignment to atoms done       ...    0.0 sec
Grid point division into batches done        ...    0.0 sec
Reduced shell lists constructed in    0.0 sec

Total number of grid points                  ...     1588
Total number of batches                      ...       26
Average number of points per batch           ...       61
Average number of grid points per atom       ...      794
Average number of shells per batch           ...     9.78 (48.89%)
Average number of basis functions per batch  ...    29.04 (48.40%)
Average number of large shells per batch     ...     9.70 (99.24%)
Average number of large basis fcns per batch ...    28.96 (99.74%)
Maximum spatial batch extension              ...  17.62, 21.59, 21.59 au
Average spatial batch extension              ...   6.09,  8.91,  9.49 au

Time for grid setup =    0.006 sec

--------------
SCF ITERATIONS
--------------
ITER       Energy         Delta-E        Max-DP      RMS-DP      [F,P]     Damp
               ***  Starting incremental Fock matrix formation  ***
  0     -0.9980349081   0.000000000000 0.00000130  0.00000003  0.0000008 0.7000
                 **** Energy Check signals convergence ****

               *****************************************************
               *                     SUCCESS                       *
               *           SCF CONVERGED AFTER   1 CYCLES          *
               *****************************************************

Setting up the final grid:

General Integration Accuracy     IntAcc      ...  4.670
Radial Grid Type                 RadialGrid  ... Gauss-Chebyshev
Angular Grid (max. acc.)         AngularGrid ... Lebedev-302
Angular grid pruning method      GridPruning ... 3 (G Style)
Weight generation scheme         WeightScheme... Becke
Basis function cutoff            BFCut       ...    1.0000e-11
Integration weight cutoff        WCut        ...    1.0000e-14
Grids for H and He will be reduced by one unit

# of grid points (after initial pruning)     ...   6788 (   0.0 sec)
# of grid points (after weights+screening)   ...   6788 (   0.0 sec)
nearest neighbour list constructed           ...    0.0 sec
Grid point re-assignment to atoms done       ...    0.0 sec
Grid point division into batches done        ...    0.0 sec
Reduced shell lists constructed in    0.0 sec

Total number of grid points                  ...     6788
Total number of batches                      ...      108
Average number of points per batch           ...       62
Average number of grid points per atom       ...     3394
Average number of shells per batch           ...     9.17 (45.87%)
Average number of basis functions per batch  ...    27.01 (45.02%)
Average number of large shells per batch     ...     8.66 (94.40%)
Average number of large basis fcns per batch ...    25.21 (93.34%)
Maximum spatial batch extension              ...  15.43, 15.43, 15.43 au
Average spatial batch extension              ...   4.52,  4.60,  4.61 au

Final grid set up in    0.0 sec
Final integration                            ... done (   0.0 sec)
Change in XC energy                          ...    -0.000000257
Integrated number of electrons               ...     1.999990167
Previous integrated no of electrons          ...     1.999990153
Total Energy       :           -0.99803517 Eh             -27.15792 eV
  Last Energy change         ...   -3.0186e-12  Tolerance :   1.0000e-08
  Last MAX-Density change    ...    5.2080e-07  Tolerance :   1.0000e-07
             **** THE GBW FILE WAS UPDATED (H2_0_3_UB3LYP_def2-qzvpp.sp.gbw) ****
             **** DENSITY FILE WAS UPDATED (H2_0_3_UB3LYP_def2-qzvpp.sp.scfp) ****
             **** ENERGY FILE WAS UPDATED (H2_0_3_UB3LYP_def2-qzvpp.sp.en.tmp) ****
----------------------
UHF SPIN CONTAMINATION
----------------------

Warning: in a DFT calculation there is little theoretical justification to 
         calculate <S**2> as in Hartree-Fock theory. We will do it anyways
         but you should keep in mind that the values have only limited relevance

Expectation value of <S**2>     :     2.000000
Ideal value S*(S+1) for S=1.0   :     2.000000
Deviation                       :     0.000000

             **** THE GBW FILE WAS UPDATED (H2_0_3_UB3LYP_def2-qzvpp.sp.gbw) ****
             **** DENSITY FILE WAS UPDATED (H2_0_3_UB3LYP_def2-qzvpp.sp.scfp) ****
Local spin analysis not attempted because no beta electrons available
Total SCF time: 0 days 0 hours 0 min 0 sec 

-------------------------   --------------------
FINAL SINGLE POINT ENERGY        -0.998035165192
-------------------------   --------------------

Storing actual gbw-file in H2_0_3_UB3LYP_def2-qzvpp.sp.003.gbw ... done

                            ***************************************
                            *     ORCA property calculations      *
                            ***************************************

                                    ---------------------
                                    Active property flags
                                    ---------------------
   (+) Dipole Moment


------------------------------------------------------------------------------
                       ORCA ELECTRIC PROPERTIES CALCULATION
------------------------------------------------------------------------------

Dipole Moment Calculation                       ... on
Quadrupole Moment Calculation                   ... off
Polarizability Calculation                      ... off
GBWName                                         ... H2_0_3_UB3LYP_def2-qzvpp.sp.gbw
Electron density file                           ... H2_0_3_UB3LYP_def2-qzvpp.sp.scfp
The origin for moment calculation is the CENTER OF MASS  = (12.792276,  0.000000  0.000000)

-------------
DIPOLE MOMENT
-------------
                                X             Y             Z
Electronic contribution:     -0.00000      -0.00000      -0.00000
Nuclear contribution   :      0.00000       0.00000       0.00000
                        -----------------------------------------
Total Dipole Moment    :     -0.00000      -0.00000      -0.00000
                        -----------------------------------------
Magnitude (a.u.)       :      0.00000
Magnitude (Debye)      :      0.00000



--------------------
Rotational spectrum 
--------------------
 
Rotational constants in cm-1:     0.000000     0.182477     0.182477 
Rotational constants in MHz :     0.000000  5470.527087  5470.527087 

 Dipole components along the rotational axes: 
x,y,z [a.u.] :    -0.000000    -0.000000    -0.000000 
x,y,z [Debye]:    -0.000000    -0.000000    -0.000000 

 

         *************************************************************
                                TRAJECTORY STEP   4
                RHH  :  11.15240214
         *************************************************************
---------------------------------
CARTESIAN COORDINATES (ANGSTROEM)
---------------------------------
  H      0.000000    0.000000    0.000000
  H     11.152402    0.000000    0.000000

----------------------------
CARTESIAN COORDINATES (A.U.)
----------------------------
  NO LB      ZA    FRAG     MASS         X           Y           Z
   0 H     1.0000    0     1.008    0.000000    0.000000    0.000000
   1 H     1.0000    0     1.008   21.074986    0.000000    0.000000

--------------------------------
INTERNAL COORDINATES (ANGSTROEM)
--------------------------------
 H      0   0   0     0.000000000000     0.00000000     0.00000000
 H      1   0   0    11.152402139118     0.00000000     0.00000000

---------------------------
INTERNAL COORDINATES (A.U.)
---------------------------
 H      0   0   0     0.000000000000     0.00000000     0.00000000
 H      1   0   0    21.074985778290     0.00000000     0.00000000


Diagonalization of the overlap matrix:
Smallest eigenvalue                        ... 3.391e-02
Time for diagonalization                   ...    0.002 sec
Threshold for overlap eigenvalues          ... 1.000e-08
Number of eigenvalues below threshold      ... 0
Time for construction of square roots      ...    0.002 sec
Total time needed                          ...    0.003 sec

-------------------
DFT GRID GENERATION
-------------------

General Integration Accuracy     IntAcc      ...  4.340
Radial Grid Type                 RadialGrid  ... Gauss-Chebyshev
Angular Grid (max. acc.)         AngularGrid ... Lebedev-110
Angular grid pruning method      GridPruning ... 3 (G Style)
Weight generation scheme         WeightScheme... Becke
Basis function cutoff            BFCut       ...    1.0000e-11
Integration weight cutoff        WCut        ...    1.0000e-14
Grids for H and He will be reduced by one unit

# of grid points (after initial pruning)     ...   1588 (   0.0 sec)
# of grid points (after weights+screening)   ...   1588 (   0.0 sec)
nearest neighbour list constructed           ...    0.0 sec
Grid point re-assignment to atoms done       ...    0.0 sec
Grid point division into batches done        ...    0.0 sec
Reduced shell lists constructed in    0.0 sec

Total number of grid points                  ...     1588
Total number of batches                      ...       26
Average number of points per batch           ...       61
Average number of grid points per atom       ...      794
Average number of shells per batch           ...    10.00 (50.00%)
Average number of basis functions per batch  ...    29.26 (48.77%)
Average number of large shells per batch     ...     9.70 (97.04%)
Average number of large basis fcns per batch ...    28.96 (98.99%)
Maximum spatial batch extension              ...  19.09, 21.59, 21.59 au
Average spatial batch extension              ...   7.68,  9.17,  8.49 au

Time for grid setup =    0.007 sec

--------------
SCF ITERATIONS
--------------
ITER       Energy         Delta-E        Max-DP      RMS-DP      [F,P]     Damp
               ***  Starting incremental Fock matrix formation  ***
  0     -0.9980410749   0.000000000000 0.00002207  0.00000046  0.0000122 0.7000
                 **** Energy Check signals convergence ****

               *****************************************************
               *                     SUCCESS                       *
               *           SCF CONVERGED AFTER   1 CYCLES          *
               *****************************************************

Setting up the final grid:

General Integration Accuracy     IntAcc      ...  4.670
Radial Grid Type                 RadialGrid  ... Gauss-Chebyshev
Angular Grid (max. acc.)         AngularGrid ... Lebedev-302
Angular grid pruning method      GridPruning ... 3 (G Style)
Weight generation scheme         WeightScheme... Becke
Basis function cutoff            BFCut       ...    1.0000e-11
Integration weight cutoff        WCut        ...    1.0000e-14
Grids for H and He will be reduced by one unit

# of grid points (after initial pruning)     ...   6788 (   0.0 sec)
# of grid points (after weights+screening)   ...   6788 (   0.0 sec)
nearest neighbour list constructed           ...    0.0 sec
Grid point re-assignment to atoms done       ...    0.0 sec
Grid point division into batches done        ...    0.0 sec
Reduced shell lists constructed in    0.0 sec

Total number of grid points                  ...     6788
Total number of batches                      ...      108
Average number of points per batch           ...       62
Average number of grid points per atom       ...     3394
Average number of shells per batch           ...     9.40 (47.02%)
[...]
  2     -0.6909061727  -0.002584184166 1.38076698  0.03710179  0.0298240 0.0000
  3     -0.6977034705  -0.006797297818 0.26346380  0.00805740  0.0068975 0.0000
  4     -0.6979374336  -0.000233963101 0.16295130  0.00523036  0.0015119 0.0000
  5     -0.6979806857  -0.000043252129 0.16799038  0.00579960  0.0006214 0.0000
  6     -0.6979945557  -0.000013869927 0.01586306  0.00052522  0.0001733 0.0000
  7     -0.6979946871  -0.000000131408 0.00012055  0.00000425  0.0000227 0.0000
                 **** Energy Check signals convergence ****

               *****************************************************
               *                     SUCCESS                       *
               *           SCF CONVERGED AFTER   8 CYCLES          *
               *****************************************************

Setting up the final grid:

General Integration Accuracy     IntAcc      ...  4.670
Radial Grid Type                 RadialGrid  ... Gauss-Chebyshev
Angular Grid (max. acc.)         AngularGrid ... Lebedev-302
Angular grid pruning method      GridPruning ... 3 (G Style)
Weight generation scheme         WeightScheme... Becke
Basis function cutoff            BFCut       ...    1.0000e-11
Integration weight cutoff        WCut        ...    1.0000e-14
Grids for H and He will be reduced by one unit

# of grid points (after initial pruning)     ...   6788 (   0.0 sec)
# of grid points (after weights+screening)   ...   6756 (   0.0 sec)
nearest neighbour list constructed           ...    0.0 sec
Grid point re-assignment to atoms done       ...    0.0 sec
Grid point division into batches done        ...    0.0 sec
Reduced shell lists constructed in    0.0 sec

Total number of grid points                  ...     6756
Total number of batches                      ...      106
Average number of points per batch           ...       63
Average number of grid points per atom       ...     3378
Average number of shells per batch           ...    17.93 (89.63%)
Average number of basis functions per batch  ...    52.41 (87.35%)
Average number of large shells per batch     ...    17.07 (95.26%)
Average number of large basis fcns per batch ...    49.90 (95.20%)
Maximum spatial batch extension              ...  13.36, 15.43, 15.43 au
Average spatial batch extension              ...   3.18,  3.81,  3.77 au

Final grid set up in    0.0 sec
Final integration                            ... done (   0.1 sec)
Change in XC energy                          ...    -0.000893608
Integrated number of electrons               ...     2.000000333
Previous integrated no of electrons          ...     1.987813050
Total Energy       :           -0.69888830 Eh             -19.01772 eV
  Last Energy change         ...   -9.6270e-10  Tolerance :   1.0000e-08
  Last MAX-Density change    ...    2.4952e-04  Tolerance :   1.0000e-07
             **** THE GBW FILE WAS UPDATED (H2_0_3_UB3LYP_def2-qzvpp.sp.gbw) ****
             **** DENSITY FILE WAS UPDATED (H2_0_3_UB3LYP_def2-qzvpp.sp.scfp) ****
             **** ENERGY FILE WAS UPDATED (H2_0_3_UB3LYP_def2-qzvpp.sp.en.tmp) ****
----------------------
UHF SPIN CONTAMINATION
----------------------

Warning: in a DFT calculation there is little theoretical justification to 
         calculate <S**2> as in Hartree-Fock theory. We will do it anyways
         but you should keep in mind that the values have only limited relevance

Expectation value of <S**2>     :     2.000000
Ideal value S*(S+1) for S=1.0   :     2.000000
Deviation                       :     0.000000

             **** THE GBW FILE WAS UPDATED (H2_0_3_UB3LYP_def2-qzvpp.sp.gbw) ****
             **** DENSITY FILE WAS UPDATED (H2_0_3_UB3LYP_def2-qzvpp.sp.scfp) ****
Local spin analysis not attempted because no beta electrons available
Total SCF time: 0 days 0 hours 0 min 2 sec 

-------------------------   --------------------
FINAL SINGLE POINT ENERGY        -0.698888295912
-------------------------   --------------------

Storing actual gbw-file in H2_0_3_UB3LYP_def2-qzvpp.sp.019.gbw ... done

                            ***************************************
                            *     ORCA property calculations      *
                            ***************************************

                                    ---------------------
                                    Active property flags
                                    ---------------------
   (+) Dipole Moment


------------------------------------------------------------------------------
                       ORCA ELECTRIC PROPERTIES CALCULATION
------------------------------------------------------------------------------

Dipole Moment Calculation                       ... on
Quadrupole Moment Calculation                   ... off
Polarizability Calculation                      ... off
GBWName                                         ... H2_0_3_UB3LYP_def2-qzvpp.sp.gbw
Electron density file                           ... H2_0_3_UB3LYP_def2-qzvpp.sp.scfp
The origin for moment calculation is the CENTER OF MASS  = ( 0.574883,  0.000000  0.000000)

-------------
DIPOLE MOMENT
-------------
                                X             Y             Z
Electronic contribution:      0.00000      -0.00000      -0.00000
Nuclear contribution   :      0.00000       0.00000       0.00000
                        -----------------------------------------
Total Dipole Moment    :      0.00000      -0.00000      -0.00000
                        -----------------------------------------
Magnitude (a.u.)       :      0.00000
Magnitude (Debye)      :      0.00000



--------------------
Rotational spectrum 
--------------------
 
Rotational constants in cm-1:     0.000000    90.353569    90.353569 
Rotational constants in MHz :     0.000000 2708731.853415 2708731.853415 

 Dipole components along the rotational axes: 
x,y,z [a.u.] :     0.000000    -0.000000    -0.000000 
x,y,z [Debye]:     0.000000    -0.000000    -0.000000 

 

         *************************************************************
                                TRAJECTORY STEP  20
                RHH  :   0.50118723
         *************************************************************
---------------------------------
CARTESIAN COORDINATES (ANGSTROEM)
---------------------------------
  H      0.000000    0.000000    0.000000
  H      0.501187    0.000000    0.000000

----------------------------
CARTESIAN COORDINATES (A.U.)
----------------------------
  NO LB      ZA    FRAG     MASS         X           Y           Z
   0 H     1.0000    0     1.008    0.000000    0.000000    0.000000
   1 H     1.0000    0     1.008    0.947107    0.000000    0.000000

--------------------------------
INTERNAL COORDINATES (ANGSTROEM)
--------------------------------
 H      0   0   0     0.000000000000     0.00000000     0.00000000
 H      1   0   0     0.501187233627     0.00000000     0.00000000

---------------------------
INTERNAL COORDINATES (A.U.)
---------------------------
 H      0   0   0     0.000000000000     0.00000000     0.00000000
 H      1   0   0     0.947106613373     0.00000000     0.00000000


Diagonalization of the overlap matrix:
Smallest eigenvalue                        ... 5.708e-05
Time for diagonalization                   ...    0.002 sec
Threshold for overlap eigenvalues          ... 1.000e-08
Number of eigenvalues below threshold      ... 0
Time for construction of square roots      ...    0.002 sec
Total time needed                          ...    0.004 sec

-------------------
DFT GRID GENERATION
-------------------

General Integration Accuracy     IntAcc      ...  4.340
Radial Grid Type                 RadialGrid  ... Gauss-Chebyshev
Angular Grid (max. acc.)         AngularGrid ... Lebedev-110
Angular grid pruning method      GridPruning ... 3 (G Style)
Weight generation scheme         WeightScheme... Becke
Basis function cutoff            BFCut       ...    1.0000e-11
Integration weight cutoff        WCut        ...    1.0000e-14
Grids for H and He will be reduced by one unit

# of grid points (after initial pruning)     ...   1588 (   0.0 sec)
# of grid points (after weights+screening)   ...   1560 (   0.0 sec)
nearest neighbour list constructed           ...    0.0 sec
Grid point re-assignment to atoms done       ...    0.0 sec
Grid point division into batches done        ...    0.0 sec
Reduced shell lists constructed in    0.0 sec

Total number of grid points                  ...     1560
Total number of batches                      ...       26
Average number of points per batch           ...       60
Average number of grid points per atom       ...      780
Average number of shells per batch           ...    19.15 (95.74%)
Average number of basis functions per batch  ...    57.44 (95.74%)
Average number of large shells per batch     ...    18.78 (98.07%)
Average number of large basis fcns per batch ...    56.19 (97.81%)
Maximum spatial batch extension              ...  15.26, 21.59, 21.59 au
Average spatial batch extension              ...   4.46,  7.66,  7.77 au

Time for grid setup =    0.007 sec

--------------
SCF ITERATIONS
--------------
ITER       Energy         Delta-E        Max-DP      RMS-DP      [F,P]     Damp
               ***  Starting incremental Fock matrix formation  ***
  0     -0.5671294228   0.000000000000 0.59897094  0.01278350  0.0449707 0.7000
  1     -0.5716485256  -0.004519102800 0.81903751  0.01958073  0.0361210 0.7000
                               ***Turning on DIIS***
  2     -0.5754650242  -0.003816498548 2.67074916  0.06940690  0.0287102 0.0000
  3     -0.5853724446  -0.009907420407 0.46795434  0.01427734  0.0091120 0.0000
  4     -0.5856870185  -0.000314573975 0.31117309  0.01089881  0.0016493 0.0000
  5     -0.5857449400  -0.000057921433 0.37810431  0.01320203  0.0006498 0.0000
  6     -0.5857641764  -0.000019236392 0.04011122  0.00136182  0.0002182 0.0000
  7     -0.5857643928  -0.000000216469 0.00149566  0.00004819  0.0000179 0.0000
                 **** Energy Check signals convergence ****

               *****************************************************
               *                     SUCCESS                       *
               *           SCF CONVERGED AFTER   8 CYCLES          *
               *****************************************************

Setting up the final grid:

General Integration Accuracy     IntAcc      ...  4.670
Radial Grid Type                 RadialGrid  ... Gauss-Chebyshev
Angular Grid (max. acc.)         AngularGrid ... Lebedev-302
Angular grid pruning method      GridPruning ... 3 (G Style)
Weight generation scheme         WeightScheme... Becke
Basis function cutoff            BFCut       ...    1.0000e-11
Integration weight cutoff        WCut        ...    1.0000e-14
Grids for H and He will be reduced by one unit

# of grid points (after initial pruning)     ...   6788 (   0.0 sec)
# of grid points (after weights+screening)   ...   6754 (   0.0 sec)
nearest neighbour list constructed           ...    0.0 sec
Grid point re-assignment to atoms done       ...    0.0 sec
Grid point division into batches done        ...    0.0 sec
Reduced shell lists constructed in    0.0 sec

Total number of grid points                  ...     6754
Total number of batches                      ...      106
Average number of points per batch           ...       63
Average number of grid points per atom       ...     3377
Average number of shells per batch           ...    17.91 (89.53%)
Average number of basis functions per batch  ...    52.34 (87.23%)
Average number of large shells per batch     ...    17.07 (95.35%)
Average number of large basis fcns per batch ...    49.95 (95.45%)
Maximum spatial batch extension              ...  13.36, 15.43, 15.43 au
Average spatial batch extension              ...   3.21,  3.81,  3.72 au

Final grid set up in    0.0 sec
Final integration                            ... done (   0.1 sec)
Change in XC energy                          ...    -0.001061096
Integrated number of electrons               ...     2.000000722
Previous integrated no of electrons          ...     1.986292816
Total Energy       :           -0.58682549 Eh             -15.96833 eV
  Last Energy change         ...   -6.8148e-10  Tolerance :   1.0000e-08
  Last MAX-Density change    ...    6.2984e-04  Tolerance :   1.0000e-07
             **** THE GBW FILE WAS UPDATED (H2_0_3_UB3LYP_def2-qzvpp.sp.gbw) ****
             **** DENSITY FILE WAS UPDATED (H2_0_3_UB3LYP_def2-qzvpp.sp.scfp) ****
             **** ENERGY FILE WAS UPDATED (H2_0_3_UB3LYP_def2-qzvpp.sp.en.tmp) ****
----------------------
UHF SPIN CONTAMINATION
----------------------

Warning: in a DFT calculation there is little theoretical justification to 
         calculate <S**2> as in Hartree-Fock theory. We will do it anyways
         but you should keep in mind that the values have only limited relevance

Expectation value of <S**2>     :     2.000000
Ideal value S*(S+1) for S=1.0   :     2.000000
Deviation                       :     0.000000

             **** THE GBW FILE WAS UPDATED (H2_0_3_UB3LYP_def2-qzvpp.sp.gbw) ****
             **** DENSITY FILE WAS UPDATED (H2_0_3_UB3LYP_def2-qzvpp.sp.scfp) ****
Local spin analysis not attempted because no beta electrons available
Total SCF time: 0 days 0 hours 0 min 2 sec 

-------------------------   --------------------
FINAL SINGLE POINT ENERGY        -0.586825489045
-------------------------   --------------------

Storing actual gbw-file in H2_0_3_UB3LYP_def2-qzvpp.sp.020.gbw ... done

                            ***************************************
                            *     ORCA property calculations      *
                            ***************************************

                                    ---------------------
                                    Active property flags
                                    ---------------------
   (+) Dipole Moment


------------------------------------------------------------------------------
                       ORCA ELECTRIC PROPERTIES CALCULATION
------------------------------------------------------------------------------

Dipole Moment Calculation                       ... on
Quadrupole Moment Calculation                   ... off
Polarizability Calculation                      ... off
GBWName                                         ... H2_0_3_UB3LYP_def2-qzvpp.sp.gbw
Electron density file                           ... H2_0_3_UB3LYP_def2-qzvpp.sp.scfp
The origin for moment calculation is the CENTER OF MASS  = ( 0.473553,  0.000000  0.000000)

-------------
DIPOLE MOMENT
-------------
                                X             Y             Z
Electronic contribution:     -0.00000       0.00000      -0.00000
Nuclear contribution   :      0.00000       0.00000       0.00000
                        -----------------------------------------
Total Dipole Moment    :     -0.00000       0.00000      -0.00000
                        -----------------------------------------
Magnitude (a.u.)       :      0.00000
Magnitude (Debye)      :      0.00000



--------------------
Rotational spectrum 
--------------------
 
Rotational constants in cm-1:     0.000000   133.157724   133.157724 
Rotational constants in MHz :     0.000000 3991968.149099 3991968.149099 

 Dipole components along the rotational axes: 
x,y,z [a.u.] :    -0.000000     0.000000    -0.000000 
x,y,z [Debye]:    -0.000000     0.000000    -0.000000 

 
                              **** TRAJECTORY DONE ***

                         SUMMARY OF THE CALCULATED SURFACE

------------------
TRAJECTORY RESULTS
------------------

Column   1: RHH

The Calculated Surface using the 'Actual Energy'
  19.95262315  -0.99803554
  16.43574799  -0.99803546
  13.53876180  -0.99803517
  11.15240214  -0.99803112
   9.18666532  -0.99803220
   7.56741181  -0.99803743
   6.23357002  -0.99803311
   5.13483291  -0.99801294
   4.22976062  -0.99794012
   3.48421754  -0.99766952
   2.87008485  -0.99667613
   2.36419999  -0.99352004
   1.94748304  -0.98551225
   1.60421716  -0.96918575
   1.32145577  -0.94166676
   1.08853427  -0.90170152
   0.89666781  -0.84927124
   0.73861998  -0.78328575
   0.60842987  -0.69888830
   0.50118723  -0.58682549

                        *******************************
                        *   FIT OF THE ACT-ENERGY PES *
                        *******************************
-------------------------------
POTENTIAL ENERGY SURFACE =   0
-------------------------------

Minimum found after 26 iterations
Equilibrium distance and its energy from the interpolated PES:
  Re      =   7.38788 Angstroem  ( 13.96106 Bohr)
  E(Re)   =    -0.998038 Eh 
  dE/dR   = -3.116e-12 (-2.731e-02 CHEB)
  d2E/dR2 =    0.000002 (   0.081530 CHEB) (  -0.002317 NUM)
  d3E/dR3 =   -0.000000 (  -0.314548 CHEB)

Spectroscopic constants:
  we =       9.4 cm**-1 (based on SPLINE)
  we =    2075.8 cm**-1 (based on CHEB)
  we =      -nan cm**-1 (based on NUM)

Performing Morse fit ...
Morse-Fit Results:
 Te(adiabatic)   =   13987.8 cm**-1         =  1.734 eV
 d2E/dR**2 (Morse)=     -0.000000000 
 d3E/dR**3 (Morse)=     -0.000000000 
 d4E/dR**4 (Morse)=     -0.000000000 
 E0               =     -0.934304234 Eh  RMS=6.19e-05
 Re               =   7.48146 Angstroem      = 14.13791 Bohr RMS=1.39e-04)
 De(Morse)        = -10.41327 eV             = -83988.7 cm**-1 RMS=6.36e-04
 D0(Morse)        =      -nan eV
 beta             =  -0.00001 au          RMS=4.73e-05
 we               =     -nan cm**-1
 wexe             =      0.0 cm**-1
 Displacement   =    0.0936 Angstroem      =  0.17685 Bohr

The Calculated Surface using the SCF energy
  19.95262315  -0.99803554
  16.43574799  -0.99803546
  13.53876180  -0.99803517
  11.15240214  -0.99803112
   9.18666532  -0.99803220
   7.56741181  -0.99803743
   6.23357002  -0.99803311
   5.13483291  -0.99801294
   4.22976062  -0.99794012
   3.48421754  -0.99766952
   2.87008485  -0.99667613
   2.36419999  -0.99352004
   1.94748304  -0.98551225
   1.60421716  -0.96918575
   1.32145577  -0.94166676
   1.08853427  -0.90170152
   0.89666781  -0.84927124
   0.73861998  -0.78328575
   0.60842987  -0.69888830
   0.50118723  -0.58682549

                        *******************************
                        *       FIT OF THE SCF PES    *
                        *******************************
-------------------------------
POTENTIAL ENERGY SURFACE =   0
-------------------------------

Minimum found after 26 iterations
Equilibrium distance and its energy from the interpolated PES:
  Re      =   7.38788 Angstroem  ( 13.96106 Bohr)
  E(Re)   =    -0.998038 Eh 
  dE/dR   = -3.116e-12 (-2.731e-02 CHEB)
  d2E/dR2 =    0.000002 (   0.081530 CHEB) (  -0.002317 NUM)
  d3E/dR3 =   -0.000000 (  -0.314548 CHEB)

Spectroscopic constants:
  we =       9.4 cm**-1 (based on SPLINE)
  we =    2075.8 cm**-1 (based on CHEB)
  we =      -nan cm**-1 (based on NUM)

Performing Morse fit ...
Morse-Fit Results:
 Te(adiabatic)   =   13987.8 cm**-1         =  1.734 eV
 d2E/dR**2 (Morse)=     -0.000000000 
 d3E/dR**3 (Morse)=     -0.000000000 
 d4E/dR**4 (Morse)=     -0.000000000 
 E0               =     -0.934304234 Eh  RMS=6.19e-05
 Re               =   7.48146 Angstroem      = 14.13791 Bohr RMS=1.39e-04)
 De(Morse)        = -10.41327 eV             = -83988.7 cm**-1 RMS=6.36e-04
 D0(Morse)        =      -nan eV
 beta             =  -0.00001 au          RMS=4.73e-05
 we               =     -nan cm**-1
 wexe             =      0.0 cm**-1
 Displacement   =    0.0936 Angstroem      =  0.17685 Bohr


Timings for individual modules:

Sum of individual times         ...       32.376 sec (=   0.540 min)
GTO integral calculation        ...        4.951 sec (=   0.083 min)  15.3 %
SCF iterations                  ...       27.425 sec (=   0.457 min)  84.7 %
                             ****ORCA TERMINATED NORMALLY****
TOTAL RUN TIME: 0 days 0 hours 0 minutes 34 seconds 738 msec
