
                                 *****************
                                 * O   R   C   A *
                                 *****************

           --- An Ab Initio, DFT and Semiempirical electronic structure package ---

                  #######################################################
                  #                        -***-                        #
                  #          Department of theory and spectroscopy      #
                  #               Directorship: Frank Neese             #
                  #        Max Planck Institute fuer Kohlenforschung    #
                  #                Kaiser Wilhelm Platz 1               #
                  #                 D-45470 Muelheim/Ruhr               #
                  #                      Germany                        #
                  #                                                     #
                  #                  All rights reserved                #
                  #                        -***-                        #
                  #######################################################


                         Program Version 4.2.0 -  RELEASE  -


 With contributions from (in alphabetic order):
   Daniel Aravena         : Magnetic Suceptibility
   Michael Atanasov       : Ab Initio Ligand Field Theory (pilot matlab implementation)
   Alexander A. Auer      : GIAO ZORA, VPT2
   Ute Becker             : Parallelization
   Giovanni Bistoni       : ED, misc. LED, open-shell LED, HFLED
   Martin Brehm           : Molecular dynamics
   Dmytro Bykov           : SCF Hessian
   Vijay G. Chilkuri      : MRCI spin determinant printing, contributions to CSF-ICE
   Dipayan Datta          : RHF DLPNO-CCSD density
   Achintya Kumar Dutta   : EOM-CC, STEOM-CC
   Dmitry Ganyushin       : Spin-Orbit,Spin-Spin,Magnetic field MRCI
   Miquel Garcia          : C-PCM Hessian, Gaussian charge scheme
   Yang Guo               : DLPNO-NEVPT2, CIM, IAO-localization
   Andreas Hansen         : Spin unrestricted coupled pair/coupled cluster methods
   Benjamin Helmich-Paris : CASSCF linear response (MC-RPA)
   Lee Huntington         : MR-EOM, pCC
   Robert Izsak           : Overlap fitted RIJCOSX, COSX-SCS-MP3, EOM
   Christian Kollmar      : KDIIS, OOCD, Brueckner-CCSD(T), CCSD density
   Simone Kossmann        : Meta GGA functionals, TD-DFT gradient, OOMP2, MP2 Hessian
   Martin Krupicka        : AUTO-CI
   Lucas Lang             : DCDCAS
   Dagmar Lenk            : GEPOL surface, SMD
   Dimitrios Liakos       : Extrapolation schemes; Compound Job, initial MDCI parallelization
   Dimitrios Manganas     : Further ROCIS development; embedding schemes
   Dimitrios Pantazis     : SARC Basis sets
   Taras Petrenko         : DFT Hessian,TD-DFT gradient, ASA, ECA, R-Raman, ABS, FL, XAS/XES, NRVS
   Peter Pinski           : DLPNO-MP2, DLPNO-MP2 Gradient
   Christoph Reimann      : Effective Core Potentials
   Marius Retegan         : Local ZFS, SOC
   Christoph Riplinger    : Optimizer, TS searches, QM/MM, DLPNO-CCSD(T), (RO)-DLPNO pert. Triples
   Tobias Risthaus        : Range-separated hybrids, TD-DFT gradient, RPA, STAB
   Michael Roemelt        : Original ROCIS implementation
   Masaaki Saitow         : Open-shell DLPNO-CCSD energy and density
   Barbara Sandhoefer     : DKH picture change effects
   Avijit Sen             : IP-ROCIS
   Kantharuban Sivalingam : CASSCF convergence, NEVPT2, FIC-MRCI
   Bernardo de Souza      : ESD, SOC TD-DFT
   Georgi Stoychev        : AutoAux, RI-MP2 NMR
   Willem Van den Heuvel  : Paramagnetic NMR
   Boris Wezisla          : Elementary symmetry handling
   Frank Wennmohs         : Technical directorship


 We gratefully acknowledge several colleagues who have allowed us to
 interface, adapt or use parts of their codes:
   Stefan Grimme, W. Hujo, H. Kruse,             : VdW corrections, initial TS optimization,
                  C. Bannwarth                     DFT functionals, gCP, sTDA/sTD-DF
   Ed Valeev, F. Pavosevic, A. Kumar             : LibInt (2-el integral package), F12 methods
   Garnet Chan, S. Sharma, J. Yang, R. Olivares  : DMRG
   Ulf Ekstrom                                   : XCFun DFT Library
   Mihaly Kallay                                 : mrcc  (arbitrary order and MRCC methods)
   Andreas Klamt, Michael Diedenhofen            : otool_cosmo (COSMO solvation model)
   Jiri Pittner, Ondrej Demel                    : Mk-CCSD
   Frank Weinhold                                : gennbo (NPA and NBO analysis)
   Christopher J. Cramer and Donald G. Truhlar   : smd solvation model
   Lars Goerigk                                  : TD-DFT with DH, B97 family of functionals
   V. Asgeirsson, H. Jonsson                     : NEB implementation
   FAccTs GmbH                                   : IRC, NEB, NEB-TS, Multilevel, MM, QM/MM, CI optimization
   S Lehtola, MJT Oliveira, MAL Marques          : LibXC Library


 Your calculation uses the libint2 library for the computation of 2-el integrals
 For citations please refer to: http://libint.valeyev.net

 Your ORCA version has been built with support for libXC version: 4.2.3
 For citations please refer to: https://tddft.org/programs/libxc/

 This ORCA versions uses:
   CBLAS   interface :  Fast vector & matrix operations
   LAPACKE interface :  Fast linear algebra routines
   SCALAPACK package :  Parallel linear algebra routines


----- Orbital basis set information -----
Your calculation utilizes the basis: def2-QZVPP
   F. Weigend and R. Ahlrichs, Phys. Chem. Chem. Phys. 7, 3297 (2005).

================================================================================
                                        WARNINGS
                       Please study these warnings very carefully!
================================================================================


WARNING: Broken symmetry calculations need fully converged wavefunctions
  ===> : Setting SCFConvForced true
         You can overwrite this default with %scf ConvForced false 


INFO   : the flag for use of LIBINT has been found!

================================================================================
                                       INPUT FILE
================================================================================
NAME = H2_0_1_NEVPT2-CAS-2-2_def2-qzvpp.sp.inp
|  1> !uhf def2-qzvpp tightscf fci
|  2> !normalprint
|  3> 
|  4> %paras
|  5>   rHH [19.952623149688797 16.43574799372698 13.538761800225439 11.152402139117903 9.1866653175426 7.567411809920191 6.233570019315557 5.134832907437553 4.229760619613384 3.4842175435383975 2.870084854071569 2.3641999865500756 1.9474830399087562 1.6042171611153242 1.32145576997553 1.088534267260644 0.8966678097917788 0.7386199822079362 0.6084298690766428 0.5011872336272722]
|  6> end
|  7> 
|  8> %scf
|  9>   maxiter 500
| 10>   brokensym 1,1
| 11> end
| 12> 
| 13> *int 0 1
| 14> H 0 0 0 0 0 0
| 15> H 1 0 0 {rHH} 0 0
| 16> *
| 17> 
| 18>                          ****END OF INPUT****
================================================================================

                       ******************************
                       * Parameter Scan Calculation *
                       ******************************

Trajectory settings:
    -> SCF surface will be mapped

There are 1 parameter(s) to be scanned
           RHH: user defined at 20 points
There will be   20 energy evaluations


         *************************************************************
                                TRAJECTORY STEP   1
                RHH  :  19.95262315
         *************************************************************
---------------------------------
CARTESIAN COORDINATES (ANGSTROEM)
---------------------------------
  H      0.000000    0.000000    0.000000
  H     19.952623    0.000000    0.000000

----------------------------
CARTESIAN COORDINATES (A.U.)
----------------------------
  NO LB      ZA    FRAG     MASS         X           Y           Z
   0 H     1.0000    0     1.008    0.000000    0.000000    0.000000
   1 H     1.0000    0     1.008   37.704993    0.000000    0.000000

--------------------------------
INTERNAL COORDINATES (ANGSTROEM)
--------------------------------
 H      0   0   0     0.000000000000     0.00000000     0.00000000
 H      1   0   0    19.952623149689     0.00000000     0.00000000

---------------------------
INTERNAL COORDINATES (A.U.)
---------------------------
 H      0   0   0     0.000000000000     0.00000000     0.00000000
 H      1   0   0    37.704993406249     0.00000000     0.00000000

---------------------
BASIS SET INFORMATION
---------------------
There are 1 groups of distinct atoms

 Group   1 Type H   : 7s3p2d1f contracted to 4s3p2d1f pattern {4111/111/11/1}

Atom   0H    basis set group =>   1
Atom   1H    basis set group =>   1
------------------------------------------------------------------------------
                           ORCA GTO INTEGRAL CALCULATION
------------------------------------------------------------------------------

                         BASIS SET STATISTICS AND STARTUP INFO

 # of primitive gaussian shells          ...   26
 # of primitive gaussian functions       ...   66
 # of contracted shells                  ...   20
 # of contracted basis functions         ...   60
 Highest angular momentum                ...    3
 Maximum contraction depth               ...    4
 Integral package used                   ... LIBINT
 Integral threshhold            Thresh   ...  2.500e-11
 Primitive cut-off              TCut     ...  2.500e-12


------------------------------ INTEGRAL EVALUATION ----------------------------


 * One electron integrals 
 Pre-screening matrix                    ... done
 Shell pair data                         ... done (   0.000 sec)

-------------------------------------------------------------------------------
                                 ORCA SCF
-------------------------------------------------------------------------------

------------
SCF SETTINGS
------------
Hamiltonian:
 Ab initio Hamiltonian  Method          .... Hartree-Fock(GTOs)


General Settings:
 Integral files         IntName         .... H2_0_1_NEVPT2-CAS-2-2_def2-qzvpp.sp
 Hartree-Fock type      HFTyp           .... UHF
 Total Charge           Charge          ....    0
 Multiplicity           Mult            ....    1
 Number of Electrons    NEL             ....    2
 Basis Dimension        Dim             ....   60
 Nuclear Repulsion      ENuc            ....      0.0265216861 Eh

Convergence Acceleration:
 DIIS                   CNVDIIS         .... on
   Start iteration      DIISMaxIt       ....    12
   Startup error        DIISStart       ....  0.200000
   # of expansion vecs  DIISMaxEq       ....     5
   Bias factor          DIISBfac        ....   1.050
   Max. coefficient     DIISMaxC        ....  10.000
 Newton-Raphson         CNVNR           .... off
 SOSCF                  CNVSOSCF        .... off
 Level Shifting         CNVShift        .... on
   Level shift para.    LevelShift      ....    0.2500
   Turn off err/grad.   ShiftErr        ....    0.0010
 Zerner damping         CNVZerner       .... off
 Static damping         CNVDamp         .... on
   Fraction old density DampFac         ....    0.7000
   Max. Damping (<1)    DampMax         ....    0.9800
   Min. Damping (>=0)   DampMin         ....    0.0000
   Turn off err/grad.   DampErr         ....    0.1000
 Fernandez-Rico         CNVRico         .... off

SCF Procedure:
 Maximum # iterations   MaxIter         ....   500
 SCF integral mode      SCFMode         .... Direct
   Integral package                     .... LIBINT
 Reset frequency        DirectResetFreq ....    20
 Integral Threshold     Thresh          ....  2.500e-11 Eh
 Primitive CutOff       TCut            ....  2.500e-12 Eh

Convergence Tolerance:
 Convergence Check Mode ConvCheckMode   .... Total+1el-Energy
 Convergence forced     ConvForced      .... 1
 Energy Change          TolE            ....  1.000e-08 Eh
 1-El. energy change                    ....  1.000e-05 Eh
 DIIS Error             TolErr          ....  5.000e-07


The Broken Symmetry feature is operative
   Number of electrons in the 'A' domain  ... 1
   Number of electrons in the 'B' domain  ... 1
We will first do a calculation with S=  1.0
and then try to converge to the broken symmetry state with Ms=  0.0


Diagonalization of the overlap matrix:
Smallest eigenvalue                        ... 3.391e-02
Time for diagonalization                   ...    0.001 sec
Threshold for overlap eigenvalues          ... 1.000e-08
Number of eigenvalues below threshold      ... 0
Time for construction of square roots      ...    0.003 sec
Total time needed                          ...    0.005 sec

-------------------
DFT GRID GENERATION
-------------------

General Integration Accuracy     IntAcc      ...  4.340
Radial Grid Type                 RadialGrid  ... Gauss-Chebyshev
Angular Grid (max. acc.)         AngularGrid ... Lebedev-110
Angular grid pruning method      GridPruning ... 3 (G Style)
Weight generation scheme         WeightScheme... Becke
Basis function cutoff            BFCut       ...    1.0000e-11
Integration weight cutoff        WCut        ...    1.0000e-14
Grids for H and He will be reduced by one unit

# of grid points (after initial pruning)     ...   1588 (   0.0 sec)
# of grid points (after weights+screening)   ...   1588 (   0.0 sec)
nearest neighbour list constructed           ...    0.0 sec
Grid point re-assignment to atoms done       ...    0.0 sec
Grid point division into batches done        ...    0.0 sec
Reduced shell lists constructed in    0.0 sec

Total number of grid points                  ...     1588
Total number of batches                      ...       26
Average number of points per batch           ...       61
Average number of grid points per atom       ...      794
Average number of shells per batch           ...     9.63 (48.15%)
Average number of basis functions per batch  ...    28.89 (48.15%)
Average number of large shells per batch     ...     9.63 (100.00%)
Average number of large basis fcns per batch ...    28.89 (100.00%)
Maximum spatial batch extension              ...  17.62, 21.59, 21.59 au
Average spatial batch extension              ...   6.09,  8.92,  9.49 au

Time for grid setup =    0.006 sec

------------------------------
INITIAL GUESS: MODEL POTENTIAL
------------------------------
Loading Hartree-Fock densities                     ... done
Calculating cut-offs                               ... done
Setting up the integral package                    ... done
Initializing the effective Hamiltonian             ... done
Starting the Coulomb interaction                   ... done (   0.0 sec)
Reading the grid                                   ... done
Mapping shells                                     ... done
Starting the XC term evaluation                    ... done (   0.0 sec)
Transforming the Hamiltonian                       ... done (   0.0 sec)
Diagonalizing the Hamiltonian                      ... done (   0.0 sec)
Back transforming the eigenvectors                 ... done (   0.0 sec)
Now organizing SCF variables                       ... done
                      ------------------
                      INITIAL GUESS DONE (   0.1 sec)
                      ------------------
--------------
SCF ITERATIONS
--------------
               ***  Starting incremental Fock matrix formation  ***

                         ----------------------------
                         !        ITERATION     0   !
                         ----------------------------
   Total Energy        :      -0.989452058560 Eh
   Energy Change       :      -0.989452058560 Eh
   MAX-DP              :       0.013686970158
   RMS-DP              :       0.000300307746
   Actual Damping      :       0.7000
   Actual Level Shift  :       0.2500 Eh


                         ----------------------------
                         !        ITERATION     1   !
                         ----------------------------
   Total Energy        :      -0.991376820753 Eh
   Energy Change       :      -0.001924762193 Eh
   MAX-DP              :       0.014166194456
   RMS-DP              :       0.000324751006
   Actual Damping      :       0.7000
   Actual Level Shift  :       0.2500 Eh

                               ***Turning on DIIS***

                         ----------------------------
                         !        ITERATION     2   !
                         ----------------------------
   Total Energy        :      -0.993152472584 Eh
   Energy Change       :      -0.001775651831 Eh
   MAX-DP              :       0.040541803875
   RMS-DP              :       0.000956093293
   Actual Damping      :       0.0000
   Actual Level Shift  :       0.2500 Eh
   DIIS-Error          :       0.031434011129


                         ----------------------------
                         !        ITERATION     3   !
                         ----------------------------
   Total Energy        :      -0.999509933636 Eh
   Energy Change       :      -0.006357461052 Eh
   MAX-DP              :       0.017344585648
   RMS-DP              :       0.000481314009
   Actual Damping      :       0.0000
   Actual Level Shift  :       0.2500 Eh
   DIIS-Error          :       0.013450250130
   DIIS coefficients:
     -0.65314   1.65314


                         ----------------------------
                         !        ITERATION     4   !
                         ----------------------------
   Total Energy        :      -1.000019800377 Eh
   Energy Change       :      -0.000509866740 Eh
   MAX-DP              :       0.006209814822
   RMS-DP              :       0.000160578541
   Actual Damping      :       0.0000
   Actual Level Shift  :       0.2500 Eh
   DIIS-Error          :       0.003617344613
   DIIS coefficients:
     -0.07038  -0.12572   1.19610


                         ----------------------------
                         !        ITERATION     5   !
                         ----------------------------
   Total Energy        :      -0.999982490552 Eh
   Energy Change       :       0.000037309825 Eh
   MAX-DP              :       0.002597064834
   RMS-DP              :       0.000058702028
   Actual Damping      :       0.0000
   Actual Level Shift  :       0.2500 Eh
   DIIS-Error          :       0.001014579446
   DIIS coefficients:
     -0.00938  -0.01631  -0.12601   1.15171


                         ----------------------------
                         !        ITERATION     6   !
                         ----------------------------
   Total Energy        :      -0.999965386889 Eh
   Energy Change       :       0.000017103663 Eh
   MAX-DP              :       0.001497691005
   RMS-DP              :       0.000032126604
   Actual Damping      :       0.0000
   Actual Level Shift  :       0.0000 Eh
   DIIS-Error          :       0.000325307168
   DIIS coefficients:
      0.00035   0.00156  -0.03204  -0.28376   1.31390


                         ----------------------------
                         !        ITERATION     7   !
                         ----------------------------
   Total Energy        :      -0.999966165532 Eh
   Energy Change       :      -0.000000778643 Eh
   MAX-DP              :       0.000188470804
   RMS-DP              :       0.000003859452
   Actual Damping      :       0.0000
   Actual Level Shift  :       0.0000 Eh
   DIIS-Error          :       0.000026414450
   DIIS coefficients:
      1.11778   0.00133   0.00188  -0.01613  -0.10486


                         ----------------------------
                         !        ITERATION     8   !
                         ----------------------------
   Total Energy        :      -0.999966594391 Eh
   Energy Change       :      -0.000000428859 Eh
   MAX-DP              :       0.000008637210
   RMS-DP              :       0.000000180885
   Actual Damping      :       0.0000
   Actual Level Shift  :       0.0000 Eh
   DIIS-Error          :       0.000001461067
   DIIS coefficients:
     -0.04742   1.04850   0.00006  -0.00005  -0.00109

                 **** Energy Check signals convergence ****

               *****************************************************
               *                     SUCCESS                       *
               *           SCF CONVERGED AFTER   9 CYCLES          *
               *****************************************************


----------------
TOTAL SCF ENERGY
----------------

Total Energy       :           -0.99996660 Eh             -27.21047 eV

Components:
Nuclear Repulsion  :            0.02652169 Eh               0.72169 eV
Electronic Energy  :           -1.02648828 Eh             -27.93217 eV
One Electron Energy:           -1.05300997 Eh             -28.65386 eV
Two Electron Energy:            0.02652169 Eh               0.72169 eV

Virial components:
Potential Energy   :           -1.99993319 Eh             -54.42095 eV
Kinetic Energy     :            0.99996659 Eh              27.21047 eV
Virial Ratio       :            2.00000000


---------------
SCF CONVERGENCE
---------------

  Last Energy change         ...   -1.2697e-09  Tolerance :   1.0000e-08
  Last MAX-Density change    ...    3.7788e-07  Tolerance :   1.0000e-07
  Last RMS-Density change    ...    7.3077e-09  Tolerance :   5.0000e-09
  Last DIIS Error            ...    4.1576e-08  Tolerance :   5.0000e-07

             **** THE GBW FILE WAS UPDATED (H2_0_1_NEVPT2-CAS-2-2_def2-qzvpp.sp.gbw) ****
             **** DENSITY FILE WAS UPDATED (H2_0_1_NEVPT2-CAS-2-2_def2-qzvpp.sp.scfp) ****
             **** ENERGY FILE WAS UPDATED (H2_0_1_NEVPT2-CAS-2-2_def2-qzvpp.sp.en.tmp) ****
----------------------
UHF SPIN CONTAMINATION
----------------------

Expectation value of <S**2>     :     2.000000
Ideal value S*(S+1) for S=1.0   :     2.000000
Deviation                       :     0.000000

             **** THE GBW FILE WAS UPDATED (H2_0_1_NEVPT2-CAS-2-2_def2-qzvpp.sp.gbw) ****
             **** DENSITY FILE WAS UPDATED (H2_0_1_NEVPT2-CAS-2-2_def2-qzvpp.sp.scfp) ****
----------------
ORBITAL ENERGIES
----------------
                 SPIN UP ORBITALS
  NO   OCC          E(Eh)            E(eV) 
   0   1.0000      -0.499983       -13.6052 
   1   1.0000      -0.499983       -13.6052 
   2   0.0000       0.218667         5.9502 
   3   0.0000       0.218667         5.9502 
   4   0.0000       0.531929        14.4745 
   5   0.0000       0.531929        14.4745 
   6   0.0000       0.531929        14.4745 
   7   0.0000       0.531929        14.4745 
   8   0.0000       0.531929        14.4745 
   9   0.0000       0.531929        14.4745 
  10   0.0000       1.167071        31.7576 
  11   0.0000       1.167071        31.7576 
  12   0.0000       2.068148        56.2772 
  13   0.0000       2.068148        56.2772 
  14   0.0000       2.068148        56.2772 
  15   0.0000       2.068148        56.2772 
  16   0.0000       2.068148        56.2772 
  17   0.0000       2.068148        56.2772 
  18   0.0000       2.068148        56.2772 
  19   0.0000       2.068148        56.2772 
  20   0.0000       2.068148        56.2772 
  21   0.0000       2.068148        56.2772 
  22   0.0000       2.350196        63.9521 
  23   0.0000       2.350196        63.9521 
  24   0.0000       2.350196        63.9521 
  25   0.0000       2.350196        63.9521 
  26   0.0000       2.350196        63.9521 
  27   0.0000       2.350196        63.9521 
  28   0.0000       5.314188       144.6064 
  29   0.0000       5.314188       144.6064 
  30   0.0000       6.055028       164.7657 
  31   0.0000       6.055028       164.7657 
  32   0.0000       6.055028       164.7657 
  33   0.0000       6.055028       164.7657 
  34   0.0000       6.055028       164.7657 
  35   0.0000       6.055028       164.7657 
  36   0.0000       6.055028       164.7657 
  37   0.0000       6.055028       164.7657 
  38   0.0000       6.055028       164.7657 
  39   0.0000       6.055028       164.7657 
  40   0.0000       6.055028       164.7657 
  41   0.0000       6.055028       164.7657 
  42   0.0000       6.055028       164.7657 
  43   0.0000       6.055028       164.7657 
  44   0.0000       7.763351       211.2515 
  45   0.0000       7.763351       211.2515 
  46   0.0000       7.763351       211.2515 
  47   0.0000       7.763351       211.2515 
  48   0.0000       7.763351       211.2515 
  49   0.0000       7.763351       211.2515 
  50   0.0000       8.120879       220.9804 
  51   0.0000       8.120879       220.9804 
  52   0.0000       8.120879       220.9804 
  53   0.0000       8.120879       220.9804 
  54   0.0000       8.120879       220.9804 
  55   0.0000       8.120879       220.9804 
  56   0.0000       8.120879       220.9804 
  57   0.0000       8.120879       220.9804 
  58   0.0000       8.120879       220.9804 
  59   0.0000       8.120879       220.9804 

                 SPIN DOWN ORBITALS
  NO   OCC          E(Eh)            E(eV) 
   0   0.0000       0.042594         1.1591 
   1   0.0000       0.042594         1.1591 
   2   0.0000       0.329981         8.9793 
   3   0.0000       0.329981         8.9793 
   4   0.0000       0.607666        16.5354 
   5   0.0000       0.607666        16.5354 
   6   0.0000       0.607666        16.5354 
   7   0.0000       0.607666        16.5354 
   8   0.0000       0.607666        16.5354 
   9   0.0000       0.607666        16.5354 
  10   0.0000       1.285809        34.9886 
  11   0.0000       1.285809        34.9886 
  12   0.0000       2.112936        57.4959 
  13   0.0000       2.112936        57.4959 
  14   0.0000       2.112936        57.4959 
  15   0.0000       2.112936        57.4959 
  16   0.0000       2.112936        57.4959 
  17   0.0000       2.112936        57.4959 
  18   0.0000       2.112936        57.4959 
  19   0.0000       2.112936        57.4959 
  20   0.0000       2.112936        57.4959 
  21   0.0000       2.112936        57.4959 
  22   0.0000       2.431986        66.1777 
  23   0.0000       2.431986        66.1777 
  24   0.0000       2.431986        66.1777 
  25   0.0000       2.431986        66.1777 
  26   0.0000       2.431986        66.1777 
  27   0.0000       2.431986        66.1777 
  28   0.0000       5.407309       147.1404 
  29   0.0000       5.407309       147.1404 
  30   0.0000       6.086729       165.6283 
  31   0.0000       6.086729       165.6283 
  32   0.0000       6.086729       165.6283 
  33   0.0000       6.086729       165.6283 
  34   0.0000       6.086729       165.6283 
  35   0.0000       6.086729       165.6283 
  36   0.0000       6.086729       165.6283 
  37   0.0000       6.086729       165.6283 
  38   0.0000       6.086729       165.6283 
  39   0.0000       6.086729       165.6283 
  40   0.0000       6.086729       165.6283 
  41   0.0000       6.086729       165.6283 
  42   0.0000       6.086729       165.6283 
  43   0.0000       6.086729       165.6283 
  44   0.0000       7.823064       212.8764 
  45   0.0000       7.823064       212.8764 
  46   0.0000       7.823064       212.8764 
  47   0.0000       7.823064       212.8764 
  48   0.0000       7.823064       212.8764 
  49   0.0000       7.823064       212.8764 
  50   0.0000       8.165032       222.1818 
  51   0.0000       8.165032       222.1818 
  52   0.0000       8.165032       222.1818 
  53   0.0000       8.165032       222.1818 
  54   0.0000       8.165032       222.1818 
  55   0.0000       8.165032       222.1818 
  56   0.0000       8.165032       222.1818 
  57   0.0000       8.165032       222.1818 
  58   0.0000       8.165032       222.1818 
  59   0.0000       8.165032       222.1818 

                    ********************************
                    * MULLIKEN POPULATION ANALYSIS *
                    ********************************

--------------------------------------------
MULLIKEN ATOMIC CHARGES AND SPIN POPULATIONS
--------------------------------------------
   0 H :    0.000000    1.000000
   1 H :   -0.000000    1.000000
Sum of atomic charges         :    0.0000000
Sum of atomic spin populations:    2.0000000

-----------------------------------------------------
MULLIKEN REDUCED ORBITAL CHARGES AND SPIN POPULATIONS
-----------------------------------------------------
CHARGE
  0 H s       :     1.000000  s :     1.000000
      pz      :     0.000000  p :     0.000000
      px      :     0.000000
      py      :     0.000000
      dz2     :     0.000000  d :     0.000000
      dxz     :     0.000000
      dyz     :     0.000000
      dx2y2   :     0.000000
      dxy     :     0.000000
      f0      :     0.000000  f :     0.000000
      f+1     :     0.000000
      f-1     :     0.000000
      f+2     :     0.000000
      f-2     :     0.000000
      f+3     :     0.000000
      f-3     :     0.000000
  1 H s       :     1.000000  s :     1.000000
      pz      :     0.000000  p :     0.000000
      px      :     0.000000
      py      :     0.000000
      dz2     :     0.000000  d :     0.000000
      dxz     :     0.000000
      dyz     :     0.000000
      dx2y2   :     0.000000
      dxy     :     0.000000
      f0      :     0.000000  f :     0.000000
      f+1     :     0.000000
      f-1     :     0.000000
      f+2     :     0.000000
      f-2     :     0.000000
      f+3     :     0.000000
      f-3     :     0.000000

SPIN
  0 H s       :     1.000000  s :     1.000000
      pz      :     0.000000  p :     0.000000
      px      :     0.000000
      py      :     0.000000
      dz2     :     0.000000  d :     0.000000
      dxz     :     0.000000
      dyz     :     0.000000
      dx2y2   :     0.000000
      dxy     :     0.000000
      f0      :     0.000000  f :     0.000000
      f+1     :     0.000000
      f-1     :     0.000000
      f+2     :     0.000000
      f-2     :     0.000000
      f+3     :     0.000000
      f-3     :     0.000000
  1 H s       :     1.000000  s :     1.000000
      pz      :     0.000000  p :     0.000000
      px      :     0.000000
      py      :     0.000000
      dz2     :     0.000000  d :     0.000000
      dxz     :     0.000000
      dyz     :     0.000000
      dx2y2   :     0.000000
      dxy     :     0.000000
      f0      :     0.000000  f :     0.000000
      f+1     :     0.000000
      f-1     :     0.000000
      f+2     :     0.000000
      f-2     :     0.000000
      f+3     :     0.000000
      f-3     :     0.000000

------------------------
MULLIKEN OVERLAP CHARGES
------------------------



                     *******************************
                     * LOEWDIN POPULATION ANALYSIS *
                     *******************************

-------------------------------------------
LOEWDIN ATOMIC CHARGES AND SPIN POPULATIONS
-------------------------------------------
   0 H :    0.000000    1.000000
   1 H :   -0.000000    1.000000

----------------------------------------------------
LOEWDIN REDUCED ORBITAL CHARGES AND SPIN POPULATIONS
----------------------------------------------------
CHARGE
  0 H s       :     1.000000  s :     1.000000
      pz      :     0.000000  p :     0.000000
      px      :     0.000000
      py      :     0.000000
      dz2     :     0.000000  d :     0.000000
      dxz     :     0.000000
      dyz     :     0.000000
      dx2y2   :     0.000000
      dxy     :     0.000000
      f0      :     0.000000  f :     0.000000
      f+1     :     0.000000
      f-1     :     0.000000
      f+2     :     0.000000
      f-2     :     0.000000
      f+3     :     0.000000
      f-3     :     0.000000
  1 H s       :     1.000000  s :     1.000000
      pz      :     0.000000  p :     0.000000
      px      :     0.000000
      py      :     0.000000
      dz2     :     0.000000  d :     0.000000
      dxz     :     0.000000
      dyz     :     0.000000
      dx2y2   :     0.000000
      dxy     :     0.000000
      f0      :     0.000000  f :     0.000000
      f+1     :     0.000000
      f-1     :     0.000000
      f+2     :     0.000000
      f-2     :     0.000000
      f+3     :     0.000000
      f-3     :     0.000000

SPIN
  0 H s       :     1.000000  s :     1.000000
      pz      :     0.000000  p :     0.000000
      px      :     0.000000
      py      :     0.000000
      dz2     :     0.000000  d :     0.000000
      dxz     :     0.000000
      dyz     :     0.000000
      dx2y2   :     0.000000
      dxy     :     0.000000
      f0      :     0.000000  f :     0.000000
      f+1     :     0.000000
      f-1     :     0.000000
      f+2     :     0.000000
      f-2     :     0.000000
      f+3     :     0.000000
      f-3     :     0.000000
  1 H s       :     1.000000  s :     1.000000
      pz      :     0.000000  p :     0.000000
      px      :     0.000000
      py      :     0.000000
      dz2     :     0.000000  d :     0.000000
      dxz     :     0.000000
      dyz     :     0.000000
      dx2y2   :     0.000000
      dxy     :     0.000000
      f0      :     0.000000  f :     0.000000
      f+1     :     0.000000
      f-1     :     0.000000
      f+2     :     0.000000
      f-2     :     0.000000
      f+3     :     0.000000
      f-3     :     0.000000

---------------------------------
LOEWDIN BOND ORDERS (THRESH 0.050000)
---------------------------------


------------------------------------------
LOEWDIN REDUCED ORBITAL POPULATIONS PER MO
-------------------------------------------
THRESHOLD FOR PRINTING IS 0.1%
SPIN UP
                      0         1         2         3         4         5   
                  -0.49998  -0.49998   0.21867   0.21867   0.53193   0.53193
                   1.00000   1.00000   0.00000   0.00000   0.00000   0.00000
                  --------  --------  --------  --------  --------  --------
 0 H  s               1.1      98.9       0.4      99.6       0.0       0.0
 0 H  pz              0.0       0.0       0.0       0.0      99.7       0.2
 0 H  py              0.0       0.0       0.0       0.0       0.1      68.9
 1 H  s              98.9       1.1      99.6       0.4       0.0       0.0
 1 H  pz              0.0       0.0       0.0       0.0       0.0      21.4
 1 H  py              0.0       0.0       0.0       0.0       0.2       9.5

                      6         7         8         9        10        11   
                   0.53193   0.53193   0.53193   0.53193   1.16707   1.16707
                   0.00000   0.00000   0.00000   0.00000   0.00000   0.00000
                  --------  --------  --------  --------  --------  --------
 0 H  s               0.0       0.0       0.0       0.0      20.6      79.4
 0 H  px              0.0       0.0      45.2      54.8       0.0       0.0
 0 H  py             14.4      16.6       0.0       0.0       0.0       0.0
 1 H  s               0.0       0.0       0.0       0.0      79.4      20.6
 1 H  pz              0.4      78.2       0.0       0.0       0.0       0.0
 1 H  px              0.0       0.0      54.8      45.2       0.0       0.0
 1 H  py             85.1       5.2       0.0       0.0       0.0       0.0

                     12        13        14        15        16        17   
                   2.06815   2.06815   2.06815   2.06815   2.06815   2.06815
                   0.00000   0.00000   0.00000   0.00000   0.00000   0.00000
                  --------  --------  --------  --------  --------  --------
 0 H  dz2            23.8       1.7       0.0       0.0       0.0       0.0
 0 H  dxz             0.0       0.0       3.9      87.2       0.1       8.8
 0 H  dx2y2          69.0       5.4       0.0       0.0       0.0       0.1
 0 H  dxy             0.0       0.1       2.5       8.1      35.7      53.6
 1 H  dz2             1.8      23.1       0.0       0.0       0.0       0.0
 1 H  dxz             0.0       0.0      43.4       0.0      26.3      30.2
 1 H  dx2y2           5.4      69.6       0.0       0.0       0.0       0.0
 1 H  dxy             0.0       0.0      50.3       4.7      37.9       7.1

                     18        19        20        21        22        23   
                   2.06815   2.06815   2.06815   2.06815   2.35020   2.35020
                   0.00000   0.00000   0.00000   0.00000   0.00000   0.00000
                  --------  --------  --------  --------  --------  --------
 0 H  pz              0.0       0.0       0.0       0.0      68.7       0.0
 0 H  py              0.0       0.0       0.0       0.0      22.2      15.2
 0 H  dz2            19.3      52.0       2.5       0.6       0.0       0.0
 0 H  dyz            73.5      26.2       0.2       0.1       0.0       0.0
 0 H  dx2y2           6.8      17.7       0.8       0.2       0.0       0.0
 1 H  pz              0.0       0.0       0.0       0.0       6.7      80.1
 1 H  py              0.0       0.0       0.0       0.0       2.4       4.7
 1 H  dz2             0.1       1.6       5.7      67.7       0.0       0.0
 1 H  dyz             0.3       2.0      88.9       8.8       0.0       0.0
 1 H  dx2y2           0.0       0.5       1.9      22.6       0.0       0.0

                     24        25        26        27        28        29   
                   2.35020   2.35020   2.35020   2.35020   5.31419   5.31419
                   0.00000   0.00000   0.00000   0.00000   0.00000   0.00000
                  --------  --------  --------  --------  --------  --------
 0 H  s               0.0       0.0       0.0       0.0      93.6       6.4
 0 H  pz              8.3      23.0       0.0       0.0       0.0       0.0
 0 H  px              0.0       0.0      76.6      23.4       0.0       0.0
 0 H  py              0.5      62.2       0.0       0.0       0.0       0.0
 1 H  s               0.0       0.0       0.0       0.0       6.4      93.6
 1 H  pz              6.1       7.1       0.0       0.0       0.0       0.0
 1 H  px              0.0       0.0      23.4      76.6       0.0       0.0
 1 H  py             85.2       7.7       0.0       0.0       0.0       0.0

                     30        31        32        33        34        35   
                   6.05503   6.05503   6.05503   6.05503   6.05503   6.05503
                   0.00000   0.00000   0.00000   0.00000   0.00000   0.00000
                  --------  --------  --------  --------  --------  --------
 0 H  f0              0.0       0.0       4.4       5.3      26.7       1.1
 0 H  f+1            37.3       0.2       0.0       0.0       0.0       0.0
 0 H  f-1             0.0       0.0       0.0       0.0       0.3       5.9
 0 H  f+2             0.0       0.0       7.4       8.8      44.5       1.8
 0 H  f+3            62.2       0.3       0.0       0.0       0.0       0.0
 0 H  f-3             0.0       0.0       0.0       0.6       4.8      88.4
 1 H  f0              0.0       0.0       2.4      31.5       2.8       0.7
 1 H  f+1             0.2      37.3       0.0       0.0       0.0       0.0
 1 H  f-1             0.0       0.0       5.1       0.1       1.0       0.1
 1 H  f+2             0.0       0.0       4.1      52.5       4.7       1.2
 1 H  f+3             0.3      62.2       0.0       0.0       0.0       0.0
 1 H  f-3             0.0       0.0      76.5       1.3      15.1       0.8

                     36        37        38        39        40        41   
                   6.05503   6.05503   6.05503   6.05503   6.05503   6.05503
                   0.00000   0.00000   0.00000   0.00000   0.00000   0.00000
                  --------  --------  --------  --------  --------  --------
 0 H  f0              0.0       0.0       0.0       0.0       1.3      61.2
 0 H  f+1             0.8       0.6       1.0      60.1       0.0       0.0
 0 H  f-1             0.0       0.0       0.0       0.0      42.6       0.8
 0 H  f+2             0.0       0.0       0.0       0.0       0.8      36.7
 0 H  f-2            59.7      27.1       9.9       3.2       0.0       0.0
 0 H  f+3             0.5       0.4       0.6      36.1       0.0       0.0
 0 H  f-3             0.0       0.0       0.0       0.0       2.8       0.1
 1 H  f0              0.0       0.0       0.0       0.0       0.8       0.0
 1 H  f+1            20.9      10.4      30.9       0.3       0.0       0.0
 1 H  f-1             0.0       0.0       0.0       0.0      48.1       1.1
 1 H  f+2             0.0       0.0       0.0       0.0       0.5       0.0
 1 H  f-2             5.7      55.2      39.0       0.1       0.0       0.0
 1 H  f+3            12.5       6.3      18.6       0.2       0.0       0.0
 1 H  f-3             0.0       0.0       0.0       0.0       3.2       0.1

                     42        43        44        45        46        47   
                   6.05503   6.05503   7.76335   7.76335   7.76335   7.76335
                   0.00000   0.00000   0.00000   0.00000   0.00000   0.00000
                  --------  --------  --------  --------  --------  --------
 0 H  pz              0.0       0.0       0.0       0.0      90.8       6.9
 0 H  px              0.0       0.0      44.0      56.0       0.0       0.0
 0 H  py              0.0       0.0       0.0       0.0       8.0      82.9
 0 H  f-1            48.2       2.2       0.0       0.0       0.0       0.0
 0 H  f-3             3.2       0.1       0.0       0.0       0.0       0.0
 1 H  pz              0.0       0.0       0.0       0.0       0.0       9.4
 1 H  px              0.0       0.0      56.0      44.0       0.0       0.0
 1 H  py              0.0       0.0       0.0       0.0       1.2       0.8
 1 H  f0              6.0      55.7       0.0       0.0       0.0       0.0
 1 H  f-1            36.6       7.9       0.0       0.0       0.0       0.0
 1 H  f+2             3.6      33.4       0.0       0.0       0.0       0.0
 1 H  f-3             2.4       0.5       0.0       0.0       0.0       0.0

                     48        49        50        51        52        53   
                   7.76335   7.76335   8.12088   8.12088   8.12088   8.12088
                   0.00000   0.00000   0.00000   0.00000   0.00000   0.00000
                  --------  --------  --------  --------  --------  --------
 0 H  pz              1.4       0.9       0.0       0.0       0.0       0.0
 0 H  py              0.0       9.1       0.0       0.0       0.0       0.0
 0 H  dz2             0.0       0.0       2.2      22.8       0.0       0.0
 0 H  dxz             0.0       0.0       0.0       0.0       1.8      73.6
 0 H  dx2y2           0.0       0.0       6.6      68.4       0.0       0.0
 0 H  dxy             0.0       0.0       0.0       0.0      53.1      17.1
 1 H  pz              1.9      88.7       0.0       0.0       0.0       0.0
 1 H  py             96.7       1.4       0.0       0.0       0.0       0.0
 1 H  dz2             0.0       0.0      22.8       2.2       0.0       0.0
 1 H  dxz             0.0       0.0       0.0       0.0       2.0       0.5
 1 H  dx2y2           0.0       0.0      68.4       6.6       0.0       0.0
 1 H  dxy             0.0       0.0       0.0       0.0      43.1       8.8

                     54        55        56        57        58        59   
                   8.12088   8.12088   8.12088   8.12088   8.12088   8.12088
                   0.00000   0.00000   0.00000   0.00000   0.00000   0.00000
                  --------  --------  --------  --------  --------  --------
 0 H  dz2             0.0       0.0       1.2      42.3       1.7      29.8
 0 H  dxz            24.0       0.6       0.0       0.0       0.0       0.0
 0 H  dyz             0.0       0.0      96.0       3.4       0.5       0.2
 0 H  dx2y2           0.0       0.0       0.4      14.1       0.6       9.9
 0 H  dxy            28.9       0.9       0.0       0.0       0.0       0.0
 1 H  dz2             0.0       0.0       1.7      15.9      20.3      37.1
 1 H  dxz             0.5      97.1       0.0       0.0       0.0       0.0
 1 H  dyz             0.0       0.0       0.1      19.0      70.2      10.6
 1 H  dx2y2           0.0       0.0       0.6       5.3       6.8      12.4
 1 H  dxy            46.6       1.5       0.0       0.0       0.0       0.0


SPIN DOWN
                      0         1         2         3         4         5   
                   0.04259   0.04259   0.32998   0.32998   0.60767   0.60767
                   0.00000   0.00000   0.00000   0.00000   0.00000   0.00000
                  --------  --------  --------  --------  --------  --------
 0 H  s              56.5      43.5      55.7      44.3       0.0       0.0
 0 H  px              0.0       0.0       0.0       0.0     100.0       0.0
 1 H  s              43.5      56.5      44.3      55.7       0.0       0.0
 1 H  px              0.0       0.0       0.0       0.0       0.0     100.0

                      6         7         8         9        10        11   
                   0.60767   0.60767   0.60767   0.60767   1.28581   1.28581
                   0.00000   0.00000   0.00000   0.00000   0.00000   0.00000
                  --------  --------  --------  --------  --------  --------
 0 H  s               0.0       0.0       0.0       0.0      80.7      19.3
 0 H  pz             95.9       0.0       0.5       3.5       0.0       0.0
 0 H  py              0.0      97.8       1.4       0.8       0.0       0.0
 1 H  s               0.0       0.0       0.0       0.0      19.3      80.7
 1 H  pz              0.9       0.0      43.9      55.2       0.0       0.0
 1 H  py              3.1       2.2      54.2      40.4       0.0       0.0

                     12        13        14        15        16        17   
                   2.11294   2.11294   2.11294   2.11294   2.11294   2.11294
                   0.00000   0.00000   0.00000   0.00000   0.00000   0.00000
                  --------  --------  --------  --------  --------  --------
 0 H  dz2            23.9       1.1       0.0       0.0       0.0       0.0
 0 H  dxz             0.0       0.0      50.4      23.6       2.6      23.5
 0 H  dx2y2          71.8       3.2       0.0       0.0       0.0       0.0
 0 H  dxy             0.0       0.0      47.4      31.4       0.1      21.0
 1 H  dz2             1.1      23.9       0.0       0.0       0.0       0.0
 1 H  dxz             0.0       0.0       1.8       0.0      96.0       2.3
 1 H  dx2y2           3.2      71.8       0.0       0.0       0.0       0.0
 1 H  dxy             0.0       0.0       0.4      45.0       1.3      53.3

                     18        19        20        21        22        23   
                   2.11294   2.11294   2.11294   2.11294   2.43199   2.43199
                   0.00000   0.00000   0.00000   0.00000   0.00000   0.00000
                  --------  --------  --------  --------  --------  --------
 0 H  px              0.0       0.0       0.0       0.0       8.4      91.6
 0 H  dz2             0.0      41.5      33.5       0.0       0.0       0.0
 0 H  dyz            80.8       8.8       9.8       0.6       0.0       0.0
 0 H  dx2y2           0.0      13.8      11.2       0.0       0.0       0.0
 1 H  px              0.0       0.0       0.0       0.0      91.6       8.4
 1 H  dz2             7.8      19.7      25.2      22.4       0.0       0.0
 1 H  dyz             8.8       9.7      11.9      69.6       0.0       0.0
 1 H  dx2y2           2.6       6.6       8.4       7.4       0.0       0.0

                     24        25        26        27        28        29   
                   2.43199   2.43199   2.43199   2.43199   5.40731   5.40731
                   0.00000   0.00000   0.00000   0.00000   0.00000   0.00000
                  --------  --------  --------  --------  --------  --------
 0 H  s               0.0       0.0       0.0       0.0      37.4      62.6
 0 H  pz             69.4      14.8       4.2      11.6       0.0       0.0
 0 H  py              7.0      70.6      22.3       0.0       0.0       0.0
 1 H  s               0.0       0.0       0.0       0.0      62.6      37.4
 1 H  pz              8.5       1.9       1.3      88.3       0.0       0.0
 1 H  py             15.0      12.7      72.2       0.1       0.0       0.0

                     30        31        32        33        34        35   
                   6.08673   6.08673   6.08673   6.08673   6.08673   6.08673
                   0.00000   0.00000   0.00000   0.00000   0.00000   0.00000
                  --------  --------  --------  --------  --------  --------
 0 H  f0              0.0       0.0      28.6       2.6       1.1       5.2
 0 H  f+1            24.0      13.5       0.0       0.0       0.0       0.0
 0 H  f-1             0.0       0.0       0.7       3.5       2.0       0.0
 0 H  f+2             0.0       0.0      47.6       4.4       1.9       8.6
 0 H  f+3            40.0      22.5       0.0       0.0       0.0       0.0
 0 H  f-3             0.0       0.0      11.0      52.0      30.7       0.0
 1 H  f0              0.0       0.0       3.7       3.9       1.8      28.1
 1 H  f+1            13.5      24.0       0.0       0.0       0.0       0.0
 1 H  f-1             0.0       0.0       0.1       1.7       3.7       0.7
 1 H  f+2             0.0       0.0       6.2       6.5       3.1      46.8
 1 H  f+3            22.5      40.0       0.0       0.0       0.0       0.0
 1 H  f-3             0.0       0.0       2.0      25.5      55.6      10.7

                     36        37        38        39        40        41   
                   6.08673   6.08673   6.08673   6.08673   6.08673   6.08673
                   0.00000   0.00000   0.00000   0.00000   0.00000   0.00000
                  --------  --------  --------  --------  --------  --------
 0 H  f0              0.0       0.0       0.0       0.0      20.9      37.8
 0 H  f+1             0.0       0.5      60.7       1.3       0.0       0.0
 0 H  f-1             0.0       0.0       0.0       0.0       7.0       0.0
 0 H  f+2             0.0       0.0       0.0       0.0      12.5      22.7
 0 H  f-2            85.0       1.6       0.8      12.6       0.0       0.0
 0 H  f+3             0.0       0.3      36.4       0.8       0.0       0.0
 0 H  f-3             0.0       0.0       0.0       0.0       0.5       0.0
 1 H  f0              0.0       0.0       0.0       0.0      36.6      23.0
 1 H  f+1             4.7      48.1       1.0       8.7       0.0       0.0
 1 H  f-1             0.0       0.0       0.0       0.0       0.5       2.5
 1 H  f+2             0.0       0.0       0.0       0.0      22.0      13.8
 1 H  f-2             7.3      20.7       0.6      71.4       0.0       0.0
 1 H  f+3             2.8      28.9       0.6       5.2       0.0       0.0
 1 H  f-3             0.0       0.0       0.0       0.0       0.0       0.2

                     42        43        44        45        46        47   
                   6.08673   6.08673   7.82306   7.82306   7.82306   7.82306
                   0.00000   0.00000   0.00000   0.00000   0.00000   0.00000
                  --------  --------  --------  --------  --------  --------
 0 H  pz              0.0       0.0       0.0       0.0       2.1      11.6
 0 H  px              0.0       0.0     100.0       0.0       0.0       0.0
 0 H  py              0.0       0.0       0.0       0.0      43.6       0.0
 0 H  f0              2.6       1.2       0.0       0.0       0.0       0.0
 0 H  f-1            83.7       3.0       0.0       0.0       0.0       0.0
 0 H  f+2             1.5       0.7       0.0       0.0       0.0       0.0
 0 H  f-3             5.6       0.2       0.0       0.0       0.0       0.0
 1 H  pz              0.0       0.0       0.0       0.0       0.8      88.2
 1 H  px              0.0       0.0       0.0     100.0       0.0       0.0
 1 H  py              0.0       0.0       0.0       0.0      53.5       0.1
 1 H  f0              2.5       0.4       0.0       0.0       0.0       0.0
 1 H  f-1             2.4      88.3       0.0       0.0       0.0       0.0
 1 H  f+2             1.5       0.2       0.0       0.0       0.0       0.0
 1 H  f-3             0.2       5.9       0.0       0.0       0.0       0.0

                     48        49        50        51        52        53   
                   7.82306   7.82306   8.16503   8.16503   8.16503   8.16503
                   0.00000   0.00000   0.00000   0.00000   0.00000   0.00000
                  --------  --------  --------  --------  --------  --------
 0 H  pz             66.8      19.5       0.0       0.0       0.0       0.0
 0 H  py             20.1      36.2       0.0       0.0       0.0       0.0
 0 H  dz2             0.0       0.0      22.5       2.5       0.0       0.0
 0 H  dxz             0.0       0.0       0.0       0.0       3.5       2.4
 0 H  dx2y2           0.0       0.0      67.6       7.4       0.0       0.0
 0 H  dxy             0.0       0.0       0.0       0.0      28.7      64.8
 1 H  pz              8.8       2.2       0.0       0.0       0.0       0.0
 1 H  py              4.3      42.1       0.0       0.0       0.0       0.0
 1 H  dz2             0.0       0.0       2.5      22.6       0.0       0.0
 1 H  dxz             0.0       0.0       0.0       0.0      56.8      21.5
 1 H  dx2y2           0.0       0.0       7.4      67.6       0.0       0.0
 1 H  dxy             0.0       0.0       0.0       0.0      10.9      11.4

                     54        55        56        57        58        59   
                   8.16503   8.16503   8.16503   8.16503   8.16503   8.16503
                   0.00000   0.00000   0.00000   0.00000   0.00000   0.00000
                  --------  --------  --------  --------  --------  --------
 0 H  dz2             0.0       0.0       0.5      10.7       0.0      63.9
 0 H  dxz            12.6      81.5       0.0       0.0       0.0       0.0
 0 H  dyz             0.0       0.0      83.9      10.9       0.7       4.5
 0 H  dx2y2           0.0       0.0       0.2       3.6       0.0      21.3
 0 H  dxy             0.0       6.4       0.0       0.0       0.0       0.0
 1 H  dz2             0.0       0.0      10.1      37.8      22.0       5.2
 1 H  dxz            20.7       1.0       0.0       0.0       0.0       0.0
 1 H  dyz             0.0       0.0       2.1      24.5      70.0       3.4
 1 H  dx2y2           0.0       0.0       3.4      12.6       7.3       1.7
 1 H  dxy            66.7      11.1       0.0       0.0       0.0       0.0



                      *****************************
                      * MAYER POPULATION ANALYSIS *
                      *****************************

  NA   - Mulliken gross atomic population
  ZA   - Total nuclear charge
  QA   - Mulliken gross atomic charge
  VA   - Mayer's total valence
  BVA  - Mayer's bonded valence
  FA   - Mayer's free valence

  ATOM       NA         ZA         QA         VA         BVA        FA
  0 H      1.0000     1.0000     0.0000     1.0000     0.0000     1.0000
  1 H      1.0000     1.0000    -0.0000     1.0000     0.0000     1.0000

  Mayer bond orders larger than 0.100000


Local spin analysis not attempted because no beta electrons available

                ***UHF Natural Orbitals were saved in H2_0_1_NEVPT2-CAS-2-2_def2-qzvpp.sp.unso***

-------------------------
UHF NATURAL SPIN ORBITALS
-------------------------

Occupation Numbers:
N[  0]=   1.00000 N[  1]=   1.00000 N[  2]=   0.00000 N[  3]=   0.00000 N[  4]=   0.00000 
N[  5]=   0.00000 N[  6]=   0.00000 N[  7]=   0.00000 N[  8]=   0.00000 N[  9]=   0.00000 
N[ 10]=   0.00000 N[ 11]=   0.00000 N[ 12]=   0.00000 N[ 13]=   0.00000 N[ 14]=   0.00000 
N[ 15]=   0.00000 N[ 16]=   0.00000 N[ 17]=   0.00000 N[ 18]=   0.00000 N[ 19]=   0.00000 
N[ 20]=   0.00000 N[ 21]=   0.00000 N[ 22]=   0.00000 N[ 23]=   0.00000 N[ 24]=   0.00000 
N[ 25]=   0.00000 N[ 26]=   0.00000 N[ 27]=   0.00000 N[ 28]=   0.00000 N[ 29]=  -0.00000 
N[ 30]=  -0.00000 N[ 31]=  -0.00000 N[ 32]=  -0.00000 N[ 33]=  -0.00000 N[ 34]=  -0.00000 
N[ 35]=  -0.00000 N[ 36]=  -0.00000 N[ 37]=  -0.00000 N[ 38]=  -0.00000 N[ 39]=  -0.00000 
N[ 40]=  -0.00000 N[ 41]=  -0.00000 N[ 42]=  -0.00000 N[ 43]=  -0.00000 N[ 44]=  -0.00000 
N[ 45]=  -0.00000 N[ 46]=  -0.00000 N[ 47]=  -0.00000 N[ 48]=  -0.00000 N[ 49]=  -0.00000 
N[ 50]=  -0.00000 N[ 51]=  -0.00000 N[ 52]=  -0.00000 N[ 53]=  -0.00000 N[ 54]=  -0.00000 
N[ 55]=  -0.00000 N[ 56]=  -0.00000 N[ 57]=  -0.00000 N[ 58]=  -0.00000 N[ 59]=  -0.00000 


                ***UHF Natural Orbitals were saved in H2_0_1_NEVPT2-CAS-2-2_def2-qzvpp.sp.uno***

--------------------
UHF NATURAL ORBITALS
--------------------

Occupation Numbers:
N[  0]=   1.00000 N[  1]=   1.00000 N[  2]=   0.00000 N[  3]=   0.00000 N[  4]=   0.00000 
N[  5]=   0.00000 N[  6]=   0.00000 N[  7]=   0.00000 N[  8]=   0.00000 N[  9]=   0.00000 
N[ 10]=   0.00000 N[ 11]=   0.00000 N[ 12]=   0.00000 N[ 13]=   0.00000 N[ 14]=   0.00000 
N[ 15]=   0.00000 N[ 16]=   0.00000 N[ 17]=   0.00000 N[ 18]=   0.00000 N[ 19]=   0.00000 
N[ 20]=   0.00000 N[ 21]=   0.00000 N[ 22]=   0.00000 N[ 23]=   0.00000 N[ 24]=   0.00000 
N[ 25]=   0.00000 N[ 26]=   0.00000 N[ 27]=   0.00000 N[ 28]=   0.00000 N[ 29]=  -0.00000 
N[ 30]=  -0.00000 N[ 31]=  -0.00000 N[ 32]=  -0.00000 N[ 33]=  -0.00000 N[ 34]=  -0.00000 
N[ 35]=  -0.00000 N[ 36]=  -0.00000 N[ 37]=  -0.00000 N[ 38]=  -0.00000 N[ 39]=  -0.00000 
N[ 40]=  -0.00000 N[ 41]=  -0.00000 N[ 42]=  -0.00000 N[ 43]=  -0.00000 N[ 44]=  -0.00000 
N[ 45]=  -0.00000 N[ 46]=  -0.00000 N[ 47]=  -0.00000 N[ 48]=  -0.00000 N[ 49]=  -0.00000 
N[ 50]=  -0.00000 N[ 51]=  -0.00000 N[ 52]=  -0.00000 N[ 53]=  -0.00000 N[ 54]=  -0.00000 
N[ 55]=  -0.00000 N[ 56]=  -0.00000 N[ 57]=  -0.00000 N[ 58]=  -0.00000 N[ 59]=  -0.00000 

QR-MO GENERATION
 Dim     =   60
 Mult    =    3
 NEl     =    2
 N(DOMO) =    0
 N(SOMO) =    2
 N(VMO)  =   58


                ***Quasi-Restricted Orbitals were saved in H2_0_1_NEVPT2-CAS-2-2_def2-qzvpp.sp.qro***

Orbital Energies of Quasi-Restricted MO's
   0( 1) :    -0.187478 a.u.    -5.102 eV alpha=  -13.605 beta=    3.402
   1( 1) :    -0.187478 a.u.    -5.102 eV alpha=  -13.605 beta=    3.402
   2( 0) :     0.218667 a.u.     5.950 eV
   3( 0) :     0.218667 a.u.     5.950 eV
   4( 0) :     0.531929 a.u.    14.475 eV
   5( 0) :     0.531929 a.u.    14.475 eV
   6( 0) :     0.531929 a.u.    14.475 eV
   7( 0) :     0.531929 a.u.    14.475 eV
   8( 0) :     0.531929 a.u.    14.475 eV
   9( 0) :     0.531929 a.u.    14.475 eV
  10( 0) :     1.167071 a.u.    31.758 eV
  11( 0) :     1.167071 a.u.    31.758 eV
  12( 0) :     2.068148 a.u.    56.277 eV
  13( 0) :     2.068148 a.u.    56.277 eV
  14( 0) :     2.068148 a.u.    56.277 eV
  15( 0) :     2.068148 a.u.    56.277 eV
  16( 0) :     2.068148 a.u.    56.277 eV
  17( 0) :     2.068148 a.u.    56.277 eV
  18( 0) :     2.068148 a.u.    56.277 eV
  19( 0) :     2.068148 a.u.    56.277 eV
  20( 0) :     2.068148 a.u.    56.277 eV
  21( 0) :     2.068148 a.u.    56.277 eV
  22( 0) :     2.350196 a.u.    63.952 eV
  23( 0) :     2.350196 a.u.    63.952 eV
  24( 0) :     2.350196 a.u.    63.952 eV
  25( 0) :     2.350196 a.u.    63.952 eV
  26( 0) :     2.350196 a.u.    63.952 eV
  27( 0) :     2.350196 a.u.    63.952 eV
  28( 0) :     5.314188 a.u.   144.606 eV
  29( 0) :     5.314188 a.u.   144.606 eV
  30( 0) :     6.055028 a.u.   164.766 eV
  31( 0) :     6.055028 a.u.   164.766 eV
  32( 0) :     6.055028 a.u.   164.766 eV
  33( 0) :     6.055028 a.u.   164.766 eV
  34( 0) :     6.055028 a.u.   164.766 eV
  35( 0) :     6.055028 a.u.   164.766 eV
  36( 0) :     6.055028 a.u.   164.766 eV
  37( 0) :     6.055028 a.u.   164.766 eV
  38( 0) :     6.055028 a.u.   164.766 eV
  39( 0) :     6.055028 a.u.   164.766 eV
  40( 0) :     6.055028 a.u.   164.766 eV
  41( 0) :     6.055028 a.u.   164.766 eV
  42( 0) :     6.055028 a.u.   164.766 eV
  43( 0) :     6.055028 a.u.   164.766 eV
  44( 0) :     7.763351 a.u.   211.252 eV
  45( 0) :     7.763351 a.u.   211.252 eV
  46( 0) :     7.763351 a.u.   211.252 eV
  47( 0) :     7.763351 a.u.   211.252 eV
  48( 0) :     7.763351 a.u.   211.252 eV
  49( 0) :     7.763351 a.u.   211.252 eV
  50( 0) :     8.120879 a.u.   220.980 eV
  51( 0) :     8.120879 a.u.   220.980 eV
  52( 0) :     8.120879 a.u.   220.980 eV
  53( 0) :     8.120879 a.u.   220.980 eV
  54( 0) :     8.120879 a.u.   220.980 eV
  55( 0) :     8.120879 a.u.   220.980 eV
  56( 0) :     8.120879 a.u.   220.980 eV
  57( 0) :     8.120879 a.u.   220.980 eV
  58( 0) :     8.120879 a.u.   220.980 eV
  59( 0) :     8.120879 a.u.   220.980 eV
------------------------------------------------------------------------------
                           ORCA ORBITAL LOCALIZATION
------------------------------------------------------------------------------

Input orbitals are from                  ... H2_0_1_NEVPT2-CAS-2-2_def2-qzvpp.sp.uno
Output orbitals are to                   ... H2_0_1_NEVPT2-CAS-2-2_def2-qzvpp.sp.unoloc
Max. number of iterations                ... 64
Localizations seeded randomly            ... on
Convergence tolerance                    ... 1.000e-05
Using relative localization threshhold   ... 1.000e-05
Treshold for strong local MOs            ... 0.000e+00
Treshold for bond MOs                    ... 1.000e-01
Operator                                 ... 0
Orbital range for localization           ... 0 to 1
Localization criterion                   ... PIPEK-MEZEY
Entering Jacobi type localization:
Using Cholesky decomposition as initial guess.
Initial value of the localization sum :     2.000000
ITERATION   0 : L=    2.0000000000 DL=  0.00e+00 (MAX-T)=   0.000 
ITERATION   1 : L=    2.0000000000 DL=  0.00e+00 (MAX-T)=   0.000 
ITERATION   2 : L=    2.0000000000 DL=  0.00e+00 (MAX-T)=   0.000 
LOCALIZATION SUM CONVERGED


------------------------------------------------------------------------------- 
                    LOCALIZED MOLECULAR ORBITAL COMPOSITIONS                   
------------------------------------------------------------------------------- 

The Mulliken populations for each LMO on each atom are computed
The LMO`s will be ordered according to atom index and type
  (A) Strongly localized MO`s have populations of >=0.000 on one atom
  (B) Two center bond orbitals have populations of >=0.100 on two atoms
  (C) Other MO`s are considered to be `delocalized`

FOUND  -   2 strongly local MO`s
       -   0 two center bond MO`s
       -   0 significantly delocalized MO`s

Rather strongly localized orbitals:
MO   1:   1H  -   1.000000
MO   0:   0H  -   1.000000
Localized MO's were stored in: H2_0_1_NEVPT2-CAS-2-2_def2-qzvpp.sp.unoloc

----------------------------
 BROKEN SYMMETRY INFORMATION
----------------------------

first open orbital = 0
last open orbital  = 1
HOMO(alpha)        = 0
HOMO(beta)         = 0
The new occupation numbers
   0:    1.000    1.000
   1:    0.000    0.000
   2:    0.000    0.000
   3:    0.000    0.000
   4:    0.000    0.000
   5:    0.000    0.000
   6:    0.000    0.000
   7:    0.000    0.000
   8:    0.000    0.000
   9:    0.000    0.000
  10:    0.000    0.000
  11:    0.000    0.000
  12:    0.000    0.000
  13:    0.000    0.000
  14:    0.000    0.000
  15:    0.000    0.000
  16:    0.000    0.000
  17:    0.000    0.000
  18:    0.000    0.000
  19:    0.000    0.000
  20:    0.000    0.000
  21:    0.000    0.000
  22:    0.000    0.000
  23:    0.000    0.000
  24:    0.000    0.000
  25:    0.000    0.000
  26:    0.000    0.000
  27:    0.000    0.000
  28:    0.000    0.000
  29:    0.000    0.000
  30:    0.000    0.000
  31:    0.000    0.000
  32:    0.000    0.000
  33:    0.000    0.000
  34:    0.000    0.000
  35:    0.000    0.000
  36:    0.000    0.000
  37:    0.000    0.000
  38:    0.000    0.000
  39:    0.000    0.000
  40:    0.000    0.000
  41:    0.000    0.000
  42:    0.000    0.000
  43:    0.000    0.000
  44:    0.000    0.000
  45:    0.000    0.000
  46:    0.000    0.000
  47:    0.000    0.000
  48:    0.000    0.000
  49:    0.000    0.000
  50:    0.000    0.000
  51:    0.000    0.000
  52:    0.000    0.000
  53:    0.000    0.000
  54:    0.000    0.000
  55:    0.000    0.000
  56:    0.000    0.000
  57:    0.000    0.000
  58:    0.000    0.000
  59:    0.000    0.000

--------------
SCF ITERATIONS
--------------
               ***  Starting incremental Fock matrix formation  ***

                         ----------------------------
                         !        ITERATION     0   !
                         ----------------------------
   Total Energy        :      -0.999966595577 Eh
   Energy Change       :      -0.999966595577 Eh
   MAX-DP              :       0.000000014163
   RMS-DP              :       0.000000000274
   Actual Damping      :       0.7000
   Actual Level Shift  :       0.2500 Eh

                 **** Energy Check signals convergence ****

               *****************************************************
               *                     SUCCESS                       *
               *           SCF CONVERGED AFTER   1 CYCLES          *
               *****************************************************


----------------
TOTAL SCF ENERGY
----------------

Total Energy       :           -0.99996660 Eh             -27.21047 eV

Components:
Nuclear Repulsion  :            0.02652169 Eh               0.72169 eV
Electronic Energy  :           -1.02648828 Eh             -27.93217 eV
One Electron Energy:           -1.05300997 Eh             -28.65386 eV
Two Electron Energy:            0.02652169 Eh               0.72169 eV

Virial components:
Potential Energy   :           -1.99993319 Eh             -54.42095 eV
Kinetic Energy     :            0.99996659 Eh              27.21047 eV
Virial Ratio       :            2.00000000


---------------
SCF CONVERGENCE
---------------

  Last Energy change         ...    0.0000e+00  Tolerance :   1.0000e-08
  Last MAX-Density change    ...    1.3216e-08  Tolerance :   1.0000e-07
  Last RMS-Density change    ...    2.5611e-10  Tolerance :   5.0000e-09
  Last DIIS Error            ...    5.7731e-09  Tolerance :   5.0000e-07

             **** THE GBW FILE WAS UPDATED (H2_0_1_NEVPT2-CAS-2-2_def2-qzvpp.sp.gbw) ****
             **** DENSITY FILE WAS UPDATED (H2_0_1_NEVPT2-CAS-2-2_def2-qzvpp.sp.scfp) ****
             **** ENERGY FILE WAS UPDATED (H2_0_1_NEVPT2-CAS-2-2_def2-qzvpp.sp.en.tmp) ****
----------------------
UHF SPIN CONTAMINATION
----------------------

Expectation value of <S**2>     :     1.000000
Ideal value S*(S+1) for S=0.0   :     0.000000
Deviation                       :     1.000000

             **** THE GBW FILE WAS UPDATED (H2_0_1_NEVPT2-CAS-2-2_def2-qzvpp.sp.gbw) ****
             **** DENSITY FILE WAS UPDATED (H2_0_1_NEVPT2-CAS-2-2_def2-qzvpp.sp.scfp) ****
----------------
ORBITAL ENERGIES
----------------
                 SPIN UP ORBITALS
  NO   OCC          E(Eh)            E(eV) 
   0   1.0000      -0.499983       -13.6052 
   1   0.0000       0.042594         1.1591 
   2   0.0000       0.218667         5.9502 
   3   0.0000       0.329981         8.9793 
   4   0.0000       0.531929        14.4745 
   5   0.0000       0.531929        14.4745 
   6   0.0000       0.531929        14.4745 
   7   0.0000       0.607666        16.5354 
   8   0.0000       0.607666        16.5354 
   9   0.0000       0.607666        16.5354 
  10   0.0000       1.167071        31.7576 
  11   0.0000       1.285809        34.9886 
  12   0.0000       2.068148        56.2772 
  13   0.0000       2.068148        56.2772 
  14   0.0000       2.068148        56.2772 
  15   0.0000       2.068148        56.2772 
  16   0.0000       2.068148        56.2772 
  17   0.0000       2.112936        57.4959 
  18   0.0000       2.112936        57.4959 
  19   0.0000       2.112936        57.4959 
  20   0.0000       2.112936        57.4959 
  21   0.0000       2.112936        57.4959 
  22   0.0000       2.350196        63.9521 
  23   0.0000       2.350196        63.9521 
  24   0.0000       2.350196        63.9521 
  25   0.0000       2.431986        66.1777 
  26   0.0000       2.431986        66.1777 
  27   0.0000       2.431986        66.1777 
  28   0.0000       5.314188       144.6064 
  29   0.0000       5.407309       147.1404 
  30   0.0000       6.055028       164.7657 
  31   0.0000       6.055028       164.7657 
  32   0.0000       6.055028       164.7657 
  33   0.0000       6.055028       164.7657 
  34   0.0000       6.055028       164.7657 
  35   0.0000       6.055028       164.7657 
  36   0.0000       6.055028       164.7657 
  37   0.0000       6.086729       165.6283 
  38   0.0000       6.086729       165.6283 
  39   0.0000       6.086729       165.6283 
  40   0.0000       6.086729       165.6283 
  41   0.0000       6.086729       165.6283 
  42   0.0000       6.086729       165.6283 
  43   0.0000       6.086729       165.6283 
  44   0.0000       7.763351       211.2515 
  45   0.0000       7.763351       211.2515 
  46   0.0000       7.763351       211.2515 
  47   0.0000       7.823064       212.8764 
  48   0.0000       7.823064       212.8764 
  49   0.0000       7.823064       212.8764 
  50   0.0000       8.120879       220.9804 
  51   0.0000       8.120879       220.9804 
  52   0.0000       8.120879       220.9804 
  53   0.0000       8.120879       220.9804 
  54   0.0000       8.120879       220.9804 
  55   0.0000       8.165032       222.1818 
  56   0.0000       8.165032       222.1818 
  57   0.0000       8.165032       222.1818 
  58   0.0000       8.165032       222.1818 
  59   0.0000       8.165032       222.1818 

                 SPIN DOWN ORBITALS
  NO   OCC          E(Eh)            E(eV) 
   0   1.0000      -0.499983       -13.6052 
   1   0.0000       0.042594         1.1591 
   2   0.0000       0.218667         5.9502 
   3   0.0000       0.329981         8.9793 
   4   0.0000       0.531929        14.4745 
   5   0.0000       0.531929        14.4745 
   6   0.0000       0.531929        14.4745 
   7   0.0000       0.607666        16.5354 
   8   0.0000       0.607666        16.5354 
   9   0.0000       0.607666        16.5354 
  10   0.0000       1.167071        31.7576 
  11   0.0000       1.285809        34.9886 
  12   0.0000       2.068148        56.2772 
  13   0.0000       2.068148        56.2772 
  14   0.0000       2.068148        56.2772 
  15   0.0000       2.068148        56.2772 
  16   0.0000       2.068148        56.2772 
  17   0.0000       2.112936        57.4959 
  18   0.0000       2.112936        57.4959 
  19   0.0000       2.112936        57.4959 
  20   0.0000       2.112936        57.4959 
  21   0.0000       2.112936        57.4959 
  22   0.0000       2.350196        63.9521 
  23   0.0000       2.350196        63.9521 
  24   0.0000       2.350196        63.9521 
  25   0.0000       2.431986        66.1777 
  26   0.0000       2.431986        66.1777 
  27   0.0000       2.431986        66.1777 
  28   0.0000       5.314188       144.6064 
  29   0.0000       5.407309       147.1404 
  30   0.0000       6.055028       164.7657 
  31   0.0000       6.055028       164.7657 
  32   0.0000       6.055028       164.7657 
  33   0.0000       6.055028       164.7657 
  34   0.0000       6.055028       164.7657 
  35   0.0000       6.055028       164.7657 
  36   0.0000       6.055028       164.7657 
  37   0.0000       6.086729       165.6283 
  38   0.0000       6.086729       165.6283 
  39   0.0000       6.086729       165.6283 
  40   0.0000       6.086729       165.6283 
  41   0.0000       6.086729       165.6283 
  42   0.0000       6.086729       165.6283 
  43   0.0000       6.086729       165.6283 
  44   0.0000       7.763351       211.2515 
  45   0.0000       7.763351       211.2515 
  46   0.0000       7.763351       211.2515 
  47   0.0000       7.823064       212.8764 
  48   0.0000       7.823064       212.8764 
  49   0.0000       7.823064       212.8764 
  50   0.0000       8.120879       220.9804 
  51   0.0000       8.120879       220.9804 
  52   0.0000       8.120879       220.9804 
  53   0.0000       8.120879       220.9804 
  54   0.0000       8.120879       220.9804 
  55   0.0000       8.165032       222.1818 
  56   0.0000       8.165032       222.1818 
  57   0.0000       8.165032       222.1818 
  58   0.0000       8.165032       222.1818 
  59   0.0000       8.165032       222.1818 

                    ********************************
                    * MULLIKEN POPULATION ANALYSIS *
                    ********************************

--------------------------------------------
MULLIKEN ATOMIC CHARGES AND SPIN POPULATIONS
--------------------------------------------
   0 H :    0.000000    1.000000
   1 H :    0.000000   -1.000000
Sum of atomic charges         :    0.0000000
Sum of atomic spin populations:   -0.0000000

-----------------------------------------------------
MULLIKEN REDUCED ORBITAL CHARGES AND SPIN POPULATIONS
-----------------------------------------------------
CHARGE
  0 H s       :     1.000000  s :     1.000000
      pz      :     0.000000  p :     0.000000
      px      :     0.000000
      py      :     0.000000
      dz2     :     0.000000  d :     0.000000
      dxz     :     0.000000
      dyz     :     0.000000
      dx2y2   :     0.000000
      dxy     :     0.000000
      f0      :     0.000000  f :     0.000000
      f+1     :     0.000000
      f-1     :     0.000000
      f+2     :     0.000000
      f-2     :     0.000000
      f+3     :     0.000000
      f-3     :     0.000000
  1 H s       :     1.000000  s :     1.000000
      pz      :     0.000000  p :     0.000000
      px      :     0.000000
      py      :     0.000000
      dz2     :     0.000000  d :     0.000000
      dxz     :     0.000000
      dyz     :     0.000000
      dx2y2   :     0.000000
      dxy     :     0.000000
      f0      :     0.000000  f :     0.000000
      f+1     :     0.000000
      f-1     :     0.000000
      f+2     :     0.000000
      f-2     :     0.000000
      f+3     :     0.000000
      f-3     :     0.000000

SPIN
  0 H s       :     1.000000  s :     1.000000
      pz      :     0.000000  p :     0.000000
      px      :     0.000000
      py      :    -0.000000
      dz2     :     0.000000  d :     0.000000
      dxz     :     0.000000
      dyz     :    -0.000000
      dx2y2   :     0.000000
      dxy     :    -0.000000
      f0      :     0.000000  f :     0.000000
      f+1     :    -0.000000
      f-1     :     0.000000
      f+2     :     0.000000
      f-2     :    -0.000000
      f+3     :    -0.000000
      f-3     :    -0.000000
  1 H s       :    -1.000000  s :    -1.000000
      pz      :    -0.000000  p :    -0.000000
      px      :    -0.000000
      py      :    -0.000000
      dz2     :    -0.000000  d :    -0.000000
      dxz     :    -0.000000
      dyz     :    -0.000000
      dx2y2   :    -0.000000
      dxy     :    -0.000000
      f0      :    -0.000000  f :     0.000000
      f+1     :    -0.000000
      f-1     :     0.000000
      f+2     :     0.000000
      f-2     :     0.000000
      f+3     :     0.000000
      f-3     :    -0.000000

------------------------
MULLIKEN OVERLAP CHARGES
------------------------



                     *******************************
                     * LOEWDIN POPULATION ANALYSIS *
                     *******************************

-------------------------------------------
LOEWDIN ATOMIC CHARGES AND SPIN POPULATIONS
-------------------------------------------
   0 H :    0.000000    1.000000
   1 H :    0.000000   -1.000000

----------------------------------------------------
LOEWDIN REDUCED ORBITAL CHARGES AND SPIN POPULATIONS
----------------------------------------------------
CHARGE
  0 H s       :     1.000000  s :     1.000000
      pz      :     0.000000  p :     0.000000
      px      :     0.000000
      py      :     0.000000
      dz2     :     0.000000  d :     0.000000
      dxz     :     0.000000
      dyz     :     0.000000
      dx2y2   :     0.000000
      dxy     :     0.000000
      f0      :     0.000000  f :     0.000000
      f+1     :     0.000000
      f-1     :     0.000000
      f+2     :     0.000000
      f-2     :     0.000000
      f+3     :     0.000000
      f-3     :     0.000000
  1 H s       :     1.000000  s :     1.000000
      pz      :     0.000000  p :     0.000000
      px      :     0.000000
      py      :     0.000000
      dz2     :     0.000000  d :     0.000000
      dxz     :     0.000000
      dyz     :     0.000000
      dx2y2   :     0.000000
      dxy     :     0.000000
      f0      :     0.000000  f :     0.000000
      f+1     :     0.000000
      f-1     :     0.000000
      f+2     :     0.000000
      f-2     :     0.000000
      f+3     :     0.000000
      f-3     :     0.000000

SPIN
  0 H s       :     1.000000  s :     1.000000
      pz      :     0.000000  p :     0.000000
      px      :     0.000000
      py      :    -0.000000
      dz2     :     0.000000  d :     0.000000
      dxz     :     0.000000
      dyz     :    -0.000000
      dx2y2   :     0.000000
      dxy     :    -0.000000
      f0      :     0.000000  f :     0.000000
      f+1     :    -0.000000
      f-1     :     0.000000
      f+2     :     0.000000
      f-2     :    -0.000000
      f+3     :    -0.000000
      f-3     :    -0.000000
  1 H s       :    -1.000000  s :    -1.000000
      pz      :    -0.000000  p :    -0.000000
      px      :    -0.000000
      py      :    -0.000000
      dz2     :    -0.000000  d :    -0.000000
      dxz     :    -0.000000
      dyz     :    -0.000000
      dx2y2   :    -0.000000
      dxy     :    -0.000000
      f0      :    -0.000000  f :     0.000000
      f+1     :    -0.000000
      f-1     :     0.000000
      f+2     :    -0.000000
      f-2     :     0.000000
      f+3     :     0.000000
      f-3     :    -0.000000

---------------------------------
LOEWDIN BOND ORDERS (THRESH 0.050000)
---------------------------------


------------------------------------------
LOEWDIN REDUCED ORBITAL POPULATIONS PER MO
-------------------------------------------
THRESHOLD FOR PRINTING IS 0.1%
SPIN UP
                      0         1         2         3         4         5   
                  -0.49998   0.04259   0.21867   0.32998   0.53193   0.53193
                   1.00000   0.00000   0.00000   0.00000   0.00000   0.00000
                  --------  --------  --------  --------  --------  --------
 0 H  s             100.0       0.0     100.0       0.0       0.0       0.0
 0 H  pz              0.0       0.0       0.0       0.0      45.5      40.0
 0 H  px              0.0       0.0       0.0       0.0       0.2      30.7
 0 H  py              0.0       0.0       0.0       0.0      54.3      29.4
 1 H  s               0.0     100.0       0.0     100.0       0.0       0.0

                      6         7         8         9        10        11   
                   0.53193   0.60767   0.60767   0.60767   1.16707   1.28581
                   0.00000   0.00000   0.00000   0.00000   0.00000   0.00000
                  --------  --------  --------  --------  --------  --------
 0 H  s               0.0       0.0       0.0       0.0     100.0       0.0
 0 H  pz             14.6       0.0       0.0       0.0       0.0       0.0
 0 H  px             69.1       0.0       0.0       0.0       0.0       0.0
 0 H  py             16.3       0.0       0.0       0.0       0.0       0.0
 1 H  s               0.0       0.0       0.0       0.0       0.0     100.0
 1 H  pz              0.0      14.4      13.3      72.2       0.0       0.0
 1 H  px              0.0      11.0      83.1       5.9       0.0       0.0
 1 H  py              0.0      74.6       3.6      21.9       0.0       0.0

                     12        13        14        15        16        17   
                   2.06815   2.06815   2.06815   2.06815   2.06815   2.11294
[...]

                       ****Iteration    2****

 ... building sigma
 ... sigma done
 Equation   1: Residual Norm =  0.000000370
 Equation   2: Residual Norm =  0.000000370

                       ****Iteration    3****

 ... building sigma
 ... sigma done
 Equation   1: Residual Norm =  0.000000004 => CONVERGED
 Equation   2: Residual Norm =  0.000000004 => CONVERGED
                  *** The linear response equations have converged ***
 done
Forming perturbed spin-densities ... done
Transforming perturbed spin-densities to AO... done
Transforming densities to AO... done

-----------------------
Calling  hyperfine(..)
 -----------------------------------------------------------
 Nucleus   0H 
 HFC: 		ISOTOP = 1 	I =  0.5 	P= 533.5514 MHz/au**3
 Quadrupole: 	ISOTOP = 2 	I =  1.0 	Q=   0.0029 barn
 -----------------------------------------------------------

 ATensor - calculating contributions ...
 PFAC = 533.551395	 S = 0.000000

 ATensor (iso) - FC term  : 2099468.888793

 ATensor (dip) - EFG term
                   0          1          2    
      0     -334231.439032  -0.000000   0.000000
      1      -0.000000 166963.592195 -78.163577
      2       0.000000 -78.163577 167267.846838

(Doing Spin-Orbit-Coupling integrals       ... )
------------------------------------------------------------------------------
                         ORCA SPIN-ORBIT COUPLING CALCULATION
------------------------------------------------------------------------------

GBW file                                    ... H2_0_1_NEVPT2-CAS-2-2_def2-qzvpp.sp.gbw
Input density                               ... H2_0_1_NEVPT2-CAS-2-2_def2-qzvpp.sp.fcip.tmp
Output integrals                            ... H2_0_1_NEVPT2-CAS-2-2_def2-qzvpp.sp.fcisoc
Operator type                               ... Mean-field/Effective potential
   One-Electron Terms                       ... 1
   Coulomb Contribution                     ... 4
   Exchange Contribution                    ... 4
   Correlation Contribution                 ... 0
   Maximum number of centers                ... 4
Evaluating Coulomb term analytically        ... done
Multi-Center Exchange (+SOO)                ... done

 ATensor - OZ/SOC response term
                   0          1          2    
      0      -0.027525  -0.000000   0.000000
      1      -0.000000   3.405727   0.013407
      2       0.000000   0.005936   3.295994

 ------------------------------------------------ 
 Raw (total) HFC matrix (all values in MHz): 
        1765237.4222      -0.0000       0.0000
            -0.0000  2266435.8867     -78.1502
             0.0000     -78.1576  2266740.0316


 A^T*A Matrix 
                   0          1          2    
      0     3116063156862.503418  -0.005764   0.004574
      1      -0.005764 5136731634698.251953 -354268470.762876
      2       0.004574 -354268470.762876 5138110377078.265625

 
 A(FC)  2099468.8888  2099468.8888  2099468.8888
 A(SD)  -334231.4390  166944.6866  167286.7525
 A(SO)      -0.0275       3.4041       3.2976 A(PC) =     2.2247
         ----------   ----------   ----------
 A(Tot) 1765237.4222  2266416.9795  2266758.9389 A(iso)=2099471.1135
 Orientation: 
  X       1.0000000   -0.0000000    0.0000000
  Y       0.0000000    0.9719637   -0.2351308
  Z      -0.0000000    0.2351308    0.9719637

Notes:  (1) The principal values are square roots of the eigenvalues of AT*A
        (2) Orientations are eigenvectors of AT*A
        (3) Individual contributions are projections of the full matrices onto the eigenvectors of AT*A


 ------------------------------------------------ 
 Quadrupol Splitting 
 ------------------------------------------------ 

 EFG Tensor - calculating contributions ...
 EFG Tensor - Electronic term
                   0          1          2    
      0      -0.629327  -0.000000  -0.000000
      1      -0.000000   0.314663  -0.000000
      2      -0.000000  -0.000000   0.314663

 EFG - Nuclear term
                   0          1          2    
      0       2.354146   0.000000   0.000000
      1       0.000000  -1.177073   0.000000
      2       0.000000   0.000000  -1.177073

 ------------------------------------------------ 
 Raw (total) EFG matrix (all values in a.u.**-3):
             1.7248      -0.0000      -0.0000
            -0.0000      -0.8624      -0.0000
            -0.0000      -0.0000      -0.8624


 V^T*V Matrix 
                   0          1          2    
      0       2.975001  -0.000000  -0.000000
      1      -0.000000   0.743750   0.000000
      2      -0.000000   0.000000   0.743750

 
 V(El)       0.3147       0.3147      -0.6293
 V(Nuc)     -1.1771      -1.1771       2.3541
         ----------   ----------   ----------
 V(Tot)     -0.8624      -0.8624       1.7248 
 Orientation: 
  X       0.0000000    0.0000000    1.0000000
  Y      -1.0000000    0.0000000   -0.0000000
  Z       0.0000000    1.0000000    0.0000000
Notes:  (1) The principal values are square roots of the eigenvalues of VtotT*Vtot
        (2) Orientations are eigenvectors of VtotT*Vtot
        (3) Individual contributions are projections of the full matrices onto the eigenvectors of VtotT*Vtot


 Quadrupole tensor eigenvalues (in MHz;Q= 0.0029 I=  1.0)
  e**2qQ            =    1.1582 MHz 
  e**2qQ/(4I*(2I-1))=    0.2895 MHz 
  eta               =    0.0000
  NOTE: the diagonal representation of the SH term I*Q*I = e**2qQ/(4I(2I-1))*[-(1-eta),-(1+eta),2]



----------------------------------
 Electronic Density at given nucleus
----------------------------------
 RHO(0)=      0.649453458 a.u.**-3

Transforming densities to MO ... done

 Entering linear response for nucleus-orbit interaction ... 
Calculating Nuclear Orbit integrals    ... done
Transforming Nuclear Orbit integrals   ... done
The 0th order energies for each equation  ... 
   E0(0)= <0|H0 |0>  = -1.10442062278938
   E0(1)= <0|H0 |0>  = -1.10442062278938
   E0(2)= <0|H0 |0>  = -1.10442062278938

The 1st order perturbation energies       ... 
   E1(0)= <0|P(0)|0> = -0.00000000000000
   E1(1)= <0|P(1)|0> = -0.00000000000000
   E1(2)= <0|P(2)|0> = 0.00000000000000

TDavidsonBuffer TINHOM ... done
Calculating Inhomgenity <I|V|J>C_psi_J ... done
TDavidsonBuffer TDERIV ... done
Solving NEqs=NPert lin.Equations ...
 --------
 DEBUG : DIAG_00 - ECI_00 = 0.03869867136913 
 --------- 
 Starting vector Norm for equation   0: <B0|B0>= 0.000625948
 Starting vector Norm for equation   1: <B0|B0>= 0.109134741
 Starting vector Norm for equation   2: <B0|B0>= 0.109134741

----------------------------------
LINEAR RESPONSE ITERATIONS (POPLE)
----------------------------------

                       ****Iteration    0****

 ... building sigma
 ... sigma done

                       ****Iteration    1****

 ... building sigma
 ... sigma done
 Equation   0: Residual Norm =  0.000000003 => CONVERGED
 Equation   1: Residual Norm =  0.000020398
 Equation   2: Residual Norm =  0.000020398

                       ****Iteration    2****

 ... building sigma
 ... sigma done
 Equation   1: Residual Norm =  0.000000370
 Equation   2: Residual Norm =  0.000000370

                       ****Iteration    3****

 ... building sigma
 ... sigma done
 Equation   1: Residual Norm =  0.000000004 => CONVERGED
 Equation   2: Residual Norm =  0.000000004 => CONVERGED
                  *** The linear response equations have converged ***
 done
Forming perturbed spin-densities ... done
Transforming perturbed spin-densities to AO... done
Transforming densities to AO... done

-----------------------
Calling  hyperfine(..)
 -----------------------------------------------------------
 Nucleus   1H 
 HFC: 		ISOTOP = 1 	I =  0.5 	P= 533.5514 MHz/au**3
 Quadrupole: 	ISOTOP = 2 	I =  1.0 	Q=   0.0029 barn
 -----------------------------------------------------------

 ATensor - calculating contributions ...
 PFAC = 533.551395	 S = 0.000000

 ATensor (iso) - FC term  : -1723522.057229

 ATensor (dip) - EFG term
                   0          1          2    
      0     355012.325972   0.000000  -0.000000
      1       0.000000 -176541.087838  47.134679
      2      -0.000000  47.134679 -178471.238133

(Doing Spin-Orbit-Coupling integrals       ... )
------------------------------------------------------------------------------
                         ORCA SPIN-ORBIT COUPLING CALCULATION
------------------------------------------------------------------------------

GBW file                                    ... H2_0_1_NEVPT2-CAS-2-2_def2-qzvpp.sp.gbw
Input density                               ... H2_0_1_NEVPT2-CAS-2-2_def2-qzvpp.sp.fcip.tmp
Output integrals                            ... H2_0_1_NEVPT2-CAS-2-2_def2-qzvpp.sp.fcisoc
Operator type                               ... Mean-field/Effective potential
   One-Electron Terms                       ... 1
   Coulomb Contribution                     ... 4
   Exchange Contribution                    ... 4
   Correlation Contribution                 ... 0
   Maximum number of centers                ... 4
Evaluating Coulomb term analytically        ... done
Multi-Center Exchange (+SOO)                ... done

 ATensor - OZ/SOC response term
                   0          1          2    
      0       0.030081   0.000000   0.000000
      1       0.000000  -3.532475  -0.006510
      2      -0.000000  -0.005030  -3.500372

 ------------------------------------------------ 
 Raw (total) HFC matrix (all values in MHz): 
        -1368509.7012       0.0000      -0.0000
             0.0000  -1900066.6775      47.1282
            -0.0000      47.1296  -1901996.7957


 A^T*A Matrix 
                   0          1          2    
      0     1872818802211.920166  -0.004517   0.006119
      1      -0.004517 3610253381327.054688 -179184291.020596
      2       0.006119 -179184291.020596 3617591813202.950195

 
 A(FC)  -1723522.0572  -1723522.0572  -1723522.0572
 A(SD)  355012.3260  -176539.9375  -178472.3885
 A(SO)       0.0301      -3.5327      -3.5001 A(PC) =    -2.3343
         ----------   ----------   ----------
 A(Tot) -1368509.7012  -1900065.5275  -1901997.9458 A(iso)=-1723524.3915
 Orientation: 
  X       1.0000000   -0.0000000    0.0000000
  Y       0.0000000    0.9997024   -0.0243954
  Z      -0.0000000    0.0243954    0.9997024

Notes:  (1) The principal values are square roots of the eigenvalues of AT*A
        (2) Orientations are eigenvectors of AT*A
        (3) Individual contributions are projections of the full matrices onto the eigenvectors of AT*A


 ------------------------------------------------ 
 Quadrupol Splitting 
 ------------------------------------------------ 

 EFG Tensor - calculating contributions ...
 EFG Tensor - Electronic term
                   0          1          2    
      0      -0.629327  -0.000000  -0.000000
      1      -0.000000   0.314663  -0.000000
      2      -0.000000  -0.000000   0.314663

 EFG - Nuclear term
                   0          1          2    
      0       2.354146   0.000000   0.000000
      1       0.000000  -1.177073   0.000000
      2       0.000000   0.000000  -1.177073

 ------------------------------------------------ 
 Raw (total) EFG matrix (all values in a.u.**-3):
             1.7248      -0.0000      -0.0000
            -0.0000      -0.8624      -0.0000
            -0.0000      -0.0000      -0.8624


 V^T*V Matrix 
                   0          1          2    
      0       2.975001  -0.000000  -0.000000
      1      -0.000000   0.743750   0.000000
      2      -0.000000   0.000000   0.743750

 
 V(El)       0.3147       0.3147      -0.6293
 V(Nuc)     -1.1771      -1.1771       2.3541
         ----------   ----------   ----------
 V(Tot)     -0.8624      -0.8624       1.7248 
 Orientation: 
  X       0.0000000   -0.0000000    1.0000000
  Y       0.0000000   -1.0000000   -0.0000000
  Z       1.0000000    0.0000000    0.0000000
Notes:  (1) The principal values are square roots of the eigenvalues of VtotT*Vtot
        (2) Orientations are eigenvectors of VtotT*Vtot
        (3) Individual contributions are projections of the full matrices onto the eigenvectors of VtotT*Vtot


 Quadrupole tensor eigenvalues (in MHz;Q= 0.0029 I=  1.0)
  e**2qQ            =    1.1582 MHz 
  e**2qQ/(4I*(2I-1))=    0.2895 MHz 
  eta               =    0.0000
  NOTE: the diagonal representation of the SH term I*Q*I = e**2qQ/(4I(2I-1))*[-(1-eta),-(1+eta),2]



----------------------------------
 Electronic Density at given nucleus
----------------------------------
 RHO(0)=      0.649453458 a.u.**-3


----------------------------
Dipole Moment
----------------------------

 Origin = Center of Mass 	 0.473553 0.000000 0.000000 

-------------
DIPOLE MOMENT
-------------
                                X             Y             Z
Electronic contribution:      0.00000       0.00000      -0.00000
Nuclear contribution   :      0.00000       0.00000       0.00000
                        -----------------------------------------
Total Dipole Moment    :      0.00000       0.00000      -0.00000
                        -----------------------------------------
Magnitude (a.u.)       : 0.00000000000001
Magnitude (Debye)      :      0.00000


 Property runtime: 187 seconds

_____________________________________
 X.Deleting Buffers...

 Total FCI+Property runtime: 197 seconds


-------------------------   --------------------
FINAL SINGLE POINT ENERGY        -1.104420622789
-------------------------   --------------------

Storing actual gbw-file in H2_0_1_NEVPT2-CAS-2-2_def2-qzvpp.sp.020.gbw ... done

                            ***************************************
                            *     ORCA property calculations      *
                            ***************************************

                                    ---------------------
                                    Active property flags
                                    ---------------------
   (+) Dipole Moment


------------------------------------------------------------------------------
                       ORCA ELECTRIC PROPERTIES CALCULATION
------------------------------------------------------------------------------

Dipole Moment Calculation                       ... on
Quadrupole Moment Calculation                   ... off
Polarizability Calculation                      ... off
GBWName                                         ... H2_0_1_NEVPT2-CAS-2-2_def2-qzvpp.sp.gbw
Electron density file                           ... H2_0_1_NEVPT2-CAS-2-2_def2-qzvpp.sp.scfp
The origin for moment calculation is the CENTER OF MASS  = ( 0.473553,  0.000000  0.000000)

-------------
DIPOLE MOMENT
-------------
                                X             Y             Z
Electronic contribution:     -0.00000       0.00000       0.00000
Nuclear contribution   :      0.00000       0.00000       0.00000
                        -----------------------------------------
Total Dipole Moment    :     -0.00000       0.00000       0.00000
                        -----------------------------------------
Magnitude (a.u.)       :      0.00000
Magnitude (Debye)      :      0.00000



--------------------
Rotational spectrum 
--------------------
 
Rotational constants in cm-1:     0.000000   133.157724   133.157724 
Rotational constants in MHz :     0.000000 3991968.149099 3991968.149099 

 Dipole components along the rotational axes: 
x,y,z [a.u.] :    -0.000000     0.000000     0.000000 
x,y,z [Debye]:    -0.000000     0.000000     0.000000 

 
                              **** TRAJECTORY DONE ***

                         SUMMARY OF THE CALCULATED SURFACE

------------------
TRAJECTORY RESULTS
------------------

Column   1: RHH

The Calculated Surface using the 'Actual Energy'
  19.95262315  -0.99996660
  16.43574799  -0.99996660
  13.53876180  -0.99996661
  11.15240214  -0.99996664
   9.18666532  -0.99996673
   7.56741181  -0.99996702
   6.23357002  -0.99996802
   5.13483291  -0.99997140
   4.22976062  -0.99998571
   3.48421754  -1.00008183
   2.87008485  -1.00110645
   2.36419999  -1.00773732
   1.94748304  -1.02460669
   1.60421716  -1.05469962
   1.32145577  -1.09355170
   1.08853427  -1.13247266
   0.89666781  -1.16227769
   0.73861998  -1.17386311
   0.60842987  -1.15789533
   0.50118723  -1.10442062

                        *******************************
                        *   FIT OF THE ACT-ENERGY PES *
                        *******************************
-------------------------------
POTENTIAL ENERGY SURFACE =   0
-------------------------------

Minimum found after 19 iterations
Equilibrium distance and its energy from the interpolated PES:
  Re      =   0.72588 Angstroem  (  1.37171 Bohr)
  E(Re)   =    -1.173954 Eh 
  dE/dR   = -4.397e-09 (-1.139e-01 CHEB)
  d2E/dR2 =    0.346739 (   0.797871 CHEB) (  -0.013161 NUM)
  d3E/dR3 =   -4.125909 (  -3.025035 CHEB)

Spectroscopic constants:
  we =    4280.8 cm**-1 (based on SPLINE)
  we =    6493.6 cm**-1 (based on CHEB)
  we =      -nan cm**-1 (based on NUM)

Performing Morse fit ...
Morse-Fit Results:
 Te(adiabatic)   =    -363.1 cm**-1         = -0.045 eV
 d2E/dR**2 (Morse)=      0.411571438 
 d3E/dR**3 (Morse)=     -1.333189849 
 d4E/dR**4 (Morse)=      3.358878534 
 E0               =     -1.175608480 Eh  RMS=2.24e-06
 Re               =   0.74291 Angstroem      =  1.40390 Bohr RMS=1.05e-05)
 De(Morse)        =   4.80302 eV             =  38739.0 cm**-1 RMS=2.25e-06
 D0(Morse)        =   4.51390 eV
 beta             =   1.07976 au          RMS=1.82e-05
 we               =   4663.8 cm**-1
 wexe             =    140.3 cm**-1
 Displacement   =    0.0170 Angstroem      =  0.03219 Bohr

The Calculated Surface using the SCF energy
  19.95262315  -0.99996660
  16.43574799  -0.99996660
  13.53876180  -0.99996660
  11.15240214  -0.99996660
   9.18666532  -0.99996660
   7.56741181  -0.99996660
   6.23357002  -0.99996662
   5.13483291  -0.99996686
   4.22976062  -0.99996905
   3.48421754  -0.99999509
   2.87008485  -1.00019431
   2.36419999  -1.00122351
   1.94748304  -1.00508198
   1.60421716  -1.01623238
   1.32145577  -1.04215515
   1.08853427  -1.08564786
   0.89666781  -1.11970441
   0.73861998  -1.13357375
   0.60842987  -1.11873019
   0.50118723  -1.06572195

                        *******************************
                        *       FIT OF THE SCF PES    *
                        *******************************
-------------------------------
POTENTIAL ENERGY SURFACE =   0
-------------------------------

Minimum found after 16 iterations
Equilibrium distance and its energy from the interpolated PES:
  Re      =   0.71807 Angstroem  (  1.35696 Bohr)
  E(Re)   =    -1.133850 Eh 
  dE/dR   = 3.075e-10 (-1.144e-01 CHEB)
  d2E/dR2 =    0.419365 (   0.818570 CHEB) (  -0.010758 NUM)
  d3E/dR3 =   -4.126864 (  -3.251739 CHEB)

Spectroscopic constants:
  we =    4707.8 cm**-1 (based on SPLINE)
  we =    6577.3 cm**-1 (based on CHEB)
  we =      -nan cm**-1 (based on NUM)

Performing Morse fit ...
Morse-Fit Results:
 Te(adiabatic)   =    -438.8 cm**-1         = -0.054 eV
 d2E/dR**2 (Morse)=      0.543741444 
 d3E/dR**3 (Morse)=     -2.299524813 
 d4E/dR**4 (Morse)=      7.563787083 
 E0               =     -1.135849097 Eh  RMS=3.27e-06
 Re               =   0.70647 Angstroem      =  1.33503 Bohr RMS=1.45e-05)
 De(Morse)        =   3.72275 eV             =  30026.0 cm**-1 RMS=3.65e-06
 D0(Morse)        =   3.39044 eV
 beta             =   1.40969 au          RMS=6.22e-05
 we               =   5360.6 cm**-1
 wexe             =    239.1 cm**-1
 Displacement   =   -0.0116 Angstroem      = -0.02193 Bohr


Timings for individual modules:

Sum of individual times         ...     2327.586 sec (=  38.793 min)
GTO integral calculation        ...        5.155 sec (=   0.086 min)   0.2 %
SCF iterations                  ...       25.731 sec (=   0.429 min)   1.1 %
                             ****ORCA TERMINATED NORMALLY****
TOTAL RUN TIME: 0 days 0 hours 38 minutes 51 seconds 989 msec
