
                                 *****************
                                 * O   R   C   A *
                                 *****************

           --- An Ab Initio, DFT and Semiempirical electronic structure package ---

                  #######################################################
                  #                        -***-                        #
                  #          Department of theory and spectroscopy      #
                  #               Directorship: Frank Neese             #
                  #        Max Planck Institute fuer Kohlenforschung    #
                  #                Kaiser Wilhelm Platz 1               #
                  #                 D-45470 Muelheim/Ruhr               #
                  #                      Germany                        #
                  #                                                     #
                  #                  All rights reserved                #
                  #                        -***-                        #
                  #######################################################


                         Program Version 4.2.0 -  RELEASE  -


 With contributions from (in alphabetic order):
   Daniel Aravena         : Magnetic Suceptibility
   Michael Atanasov       : Ab Initio Ligand Field Theory (pilot matlab implementation)
   Alexander A. Auer      : GIAO ZORA, VPT2
   Ute Becker             : Parallelization
   Giovanni Bistoni       : ED, misc. LED, open-shell LED, HFLED
   Martin Brehm           : Molecular dynamics
   Dmytro Bykov           : SCF Hessian
   Vijay G. Chilkuri      : MRCI spin determinant printing, contributions to CSF-ICE
   Dipayan Datta          : RHF DLPNO-CCSD density
   Achintya Kumar Dutta   : EOM-CC, STEOM-CC
   Dmitry Ganyushin       : Spin-Orbit,Spin-Spin,Magnetic field MRCI
   Miquel Garcia          : C-PCM Hessian, Gaussian charge scheme
   Yang Guo               : DLPNO-NEVPT2, CIM, IAO-localization
   Andreas Hansen         : Spin unrestricted coupled pair/coupled cluster methods
   Benjamin Helmich-Paris : CASSCF linear response (MC-RPA)
   Lee Huntington         : MR-EOM, pCC
   Robert Izsak           : Overlap fitted RIJCOSX, COSX-SCS-MP3, EOM
   Christian Kollmar      : KDIIS, OOCD, Brueckner-CCSD(T), CCSD density
   Simone Kossmann        : Meta GGA functionals, TD-DFT gradient, OOMP2, MP2 Hessian
   Martin Krupicka        : AUTO-CI
   Lucas Lang             : DCDCAS
   Dagmar Lenk            : GEPOL surface, SMD
   Dimitrios Liakos       : Extrapolation schemes; Compound Job, initial MDCI parallelization
   Dimitrios Manganas     : Further ROCIS development; embedding schemes
   Dimitrios Pantazis     : SARC Basis sets
   Taras Petrenko         : DFT Hessian,TD-DFT gradient, ASA, ECA, R-Raman, ABS, FL, XAS/XES, NRVS
   Peter Pinski           : DLPNO-MP2, DLPNO-MP2 Gradient
   Christoph Reimann      : Effective Core Potentials
   Marius Retegan         : Local ZFS, SOC
   Christoph Riplinger    : Optimizer, TS searches, QM/MM, DLPNO-CCSD(T), (RO)-DLPNO pert. Triples
   Tobias Risthaus        : Range-separated hybrids, TD-DFT gradient, RPA, STAB
   Michael Roemelt        : Original ROCIS implementation
   Masaaki Saitow         : Open-shell DLPNO-CCSD energy and density
   Barbara Sandhoefer     : DKH picture change effects
   Avijit Sen             : IP-ROCIS
   Kantharuban Sivalingam : CASSCF convergence, NEVPT2, FIC-MRCI
   Bernardo de Souza      : ESD, SOC TD-DFT
   Georgi Stoychev        : AutoAux, RI-MP2 NMR
   Willem Van den Heuvel  : Paramagnetic NMR
   Boris Wezisla          : Elementary symmetry handling
   Frank Wennmohs         : Technical directorship


 We gratefully acknowledge several colleagues who have allowed us to
 interface, adapt or use parts of their codes:
   Stefan Grimme, W. Hujo, H. Kruse,             : VdW corrections, initial TS optimization,
                  C. Bannwarth                     DFT functionals, gCP, sTDA/sTD-DF
   Ed Valeev, F. Pavosevic, A. Kumar             : LibInt (2-el integral package), F12 methods
   Garnet Chan, S. Sharma, J. Yang, R. Olivares  : DMRG
   Ulf Ekstrom                                   : XCFun DFT Library
   Mihaly Kallay                                 : mrcc  (arbitrary order and MRCC methods)
   Andreas Klamt, Michael Diedenhofen            : otool_cosmo (COSMO solvation model)
   Jiri Pittner, Ondrej Demel                    : Mk-CCSD
   Frank Weinhold                                : gennbo (NPA and NBO analysis)
   Christopher J. Cramer and Donald G. Truhlar   : smd solvation model
   Lars Goerigk                                  : TD-DFT with DH, B97 family of functionals
   V. Asgeirsson, H. Jonsson                     : NEB implementation
   FAccTs GmbH                                   : IRC, NEB, NEB-TS, Multilevel, MM, QM/MM, CI optimization
   S Lehtola, MJT Oliveira, MAL Marques          : LibXC Library


 Your calculation uses the libint2 library for the computation of 2-el integrals
 For citations please refer to: http://libint.valeyev.net

 Your ORCA version has been built with support for libXC version: 4.2.3
 For citations please refer to: https://tddft.org/programs/libxc/

 This ORCA versions uses:
   CBLAS   interface :  Fast vector & matrix operations
   LAPACKE interface :  Fast linear algebra routines
   SCALAPACK package :  Parallel linear algebra routines


----- Orbital basis set information -----
Your calculation utilizes the basis: def2-QZVPP
   F. Weigend and R. Ahlrichs, Phys. Chem. Chem. Phys. 7, 3297 (2005).

================================================================================
                                        WARNINGS
                       Please study these warnings very carefully!
================================================================================


INFO   : the flag for use of LIBINT has been found!

================================================================================
                                       INPUT FILE
================================================================================
NAME = H_0_2_UB3LYP_def2-qzvpp.sp.inp
|  1> !uks b3lyp def2-qzvpp tightscf 
|  2> !normalprint
|  3> 
|  4> %scf
|  5>   maxiter 500
|  6> end
|  7> 
|  8> *xyz 0 2
|  9> H 0 0 0 
| 10> *
| 11> 
| 12>                          ****END OF INPUT****
================================================================================

                       ****************************
                       * Single Point Calculation *
                       ****************************

---------------------------------
CARTESIAN COORDINATES (ANGSTROEM)
---------------------------------
  H      0.000000    0.000000    0.000000

----------------------------
CARTESIAN COORDINATES (A.U.)
----------------------------
  NO LB      ZA    FRAG     MASS         X           Y           Z
   0 H     1.0000    0     1.008    0.000000    0.000000    0.000000

--------------------------------
INTERNAL COORDINATES (ANGSTROEM)
--------------------------------
 H      0   0   0     0.000000000000     0.00000000     0.00000000

---------------------------
INTERNAL COORDINATES (A.U.)
---------------------------
 H      0   0   0     0.000000000000     0.00000000     0.00000000

---------------------
BASIS SET INFORMATION
---------------------
There are 1 groups of distinct atoms

 Group   1 Type H   : 7s3p2d1f contracted to 4s3p2d1f pattern {4111/111/11/1}

Atom   0H    basis set group =>   1

Checking for AutoStart:
The File: H_0_2_UB3LYP_def2-qzvpp.sp.gbw exists
Trying to determine its content:
     ... Fine, the file contains calculation information
     ... Fine, the calculation information was read
     ... Fine, the file contains a basis set
     ... Fine, the basis set was read
     ... Fine, the file contains a geometry
     ... Fine, the geometry was read
     ... Fine, the file contains a set of orbitals
     ... Fine, the orbitals can be read
     => possible old guess file was deleted
     => GBW file was renamed to GES file
     => GES file is set as startup file
     => Guess is set to MORead
     ... now leaving AutoStart

------------------------------------------------------------------------------
                           ORCA GTO INTEGRAL CALCULATION
------------------------------------------------------------------------------

                         BASIS SET STATISTICS AND STARTUP INFO

 # of primitive gaussian shells          ...   13
 # of primitive gaussian functions       ...   33
 # of contracted shells                  ...   10
 # of contracted basis functions         ...   30
 Highest angular momentum                ...    3
 Maximum contraction depth               ...    4
 Integral package used                   ... LIBINT
 Integral threshhold            Thresh   ...  2.500e-11
 Primitive cut-off              TCut     ...  2.500e-12


------------------------------ INTEGRAL EVALUATION ----------------------------


 * One electron integrals 
 Pre-screening matrix                    ... done
 Shell pair data                         ... done (   0.000 sec)

-------------------------------------------------------------------------------
                                 ORCA SCF
-------------------------------------------------------------------------------

------------
SCF SETTINGS
------------
Hamiltonian:
 Density Functional     Method          .... DFT(GTOs)
 Exchange Functional    Exchange        .... B88
   X-Alpha parameter    XAlpha          ....  0.666667
   Becke's b parameter  XBeta           ....  0.004200
 Correlation Functional Correlation     .... LYP
 LDA part of GGA corr.  LDAOpt          .... VWN-5
 Gradients option       PostSCFGGA      .... off
 Hybrid DFT is turned on
   Fraction HF Exchange ScalHFX         ....  0.200000
   Scaling of DF-GGA-X  ScalDFX         ....  0.720000
   Scaling of DF-GGA-C  ScalDFC         ....  0.810000
   Scaling of DF-LDA-C  ScalLDAC        ....  1.000000
   Perturbative correction              ....  0.000000
   Density functional embedding theory  .... OFF
   NL short-range parameter             ....  4.800000


General Settings:
 Integral files         IntName         .... H_0_2_UB3LYP_def2-qzvpp.sp
 Hartree-Fock type      HFTyp           .... UHF
 Total Charge           Charge          ....    0
 Multiplicity           Mult            ....    2
 Number of Electrons    NEL             ....    1
 Basis Dimension        Dim             ....   30
 Nuclear Repulsion      ENuc            ....      0.0000000000 Eh

Convergence Acceleration:
 DIIS                   CNVDIIS         .... on
   Start iteration      DIISMaxIt       ....    12
   Startup error        DIISStart       ....  0.200000
   # of expansion vecs  DIISMaxEq       ....     5
   Bias factor          DIISBfac        ....   1.050
   Max. coefficient     DIISMaxC        ....  10.000
 Newton-Raphson         CNVNR           .... off
 SOSCF                  CNVSOSCF        .... off
 Level Shifting         CNVShift        .... on
   Level shift para.    LevelShift      ....    0.2500
   Turn off err/grad.   ShiftErr        ....    0.0010
 Zerner damping         CNVZerner       .... off
 Static damping         CNVDamp         .... on
   Fraction old density DampFac         ....    0.7000
   Max. Damping (<1)    DampMax         ....    0.9800
   Min. Damping (>=0)   DampMin         ....    0.0000
   Turn off err/grad.   DampErr         ....    0.1000
 Fernandez-Rico         CNVRico         .... off

SCF Procedure:
 Maximum # iterations   MaxIter         ....   500
 SCF integral mode      SCFMode         .... Direct
   Integral package                     .... LIBINT
 Reset frequency        DirectResetFreq ....    20
 Integral Threshold     Thresh          ....  2.500e-11 Eh
 Primitive CutOff       TCut            ....  2.500e-12 Eh

Convergence Tolerance:
 Convergence Check Mode ConvCheckMode   .... Total+1el-Energy
 Convergence forced     ConvForced      .... 0
 Energy Change          TolE            ....  1.000e-08 Eh
 1-El. energy change                    ....  1.000e-05 Eh
 DIIS Error             TolErr          ....  5.000e-07


Diagonalization of the overlap matrix:
Smallest eigenvalue                        ... 3.391e-02
Time for diagonalization                   ...    0.001 sec
Threshold for overlap eigenvalues          ... 1.000e-08
Number of eigenvalues below threshold      ... 0
Time for construction of square roots      ...    0.002 sec
Total time needed                          ...    0.003 sec

---------------------
INITIAL GUESS: MOREAD
---------------------
Guess MOs are being read from file: H_0_2_UB3LYP_def2-qzvpp.sp.ges
Input Geometry matches current geometry (good)
Input basis set matches current basis set (good)
MOs were renormalized
MOs were reorthogonalized (Cholesky)
                      ------------------
                      INITIAL GUESS DONE (   0.0 sec)
                      ------------------
-------------------
DFT GRID GENERATION
-------------------

General Integration Accuracy     IntAcc      ...  4.340
Radial Grid Type                 RadialGrid  ... Gauss-Chebyshev
Angular Grid (max. acc.)         AngularGrid ... Lebedev-110
Angular grid pruning method      GridPruning ... 3 (G Style)
Weight generation scheme         WeightScheme... Becke
Basis function cutoff            BFCut       ...    1.0000e-11
Integration weight cutoff        WCut        ...    1.0000e-14
Grids for H and He will be reduced by one unit

# of grid points (after initial pruning)     ...    794 (   0.0 sec)
# of grid points (after weights+screening)   ...    794 (   0.0 sec)
Grid point division into batches done        ...    0.0 sec
Reduced shell lists constructed in    0.0 sec

Total number of grid points                  ...      794
Total number of batches                      ...       13
Average number of points per batch           ...       61
Average number of grid points per atom       ...      794
Average number of shells per batch           ...     9.29 (92.86%)
Average number of basis functions per batch  ...    27.86 (92.86%)
Average number of large shells per batch     ...     9.29 (100.00%)
Average number of large basis fcns per batch ...    27.86 (100.00%)
Maximum spatial batch extension              ...  17.62, 21.59, 21.59 au
Average spatial batch extension              ...   6.10,  8.93,  9.49 au

Time for grid setup =    0.004 sec

--------------
SCF ITERATIONS
--------------
               ***  Starting incremental Fock matrix formation  ***

                         ----------------------------
                         !        ITERATION     0   !
                         ----------------------------
   Total Energy        :      -0.499017798843 Eh
   Energy Change       :      -0.499017798843 Eh
   MAX-DP              :       0.000000000251
   RMS-DP              :       0.000000000008
   Actual Damping      :       0.7000
   Actual Level Shift  :       0.2500 Eh
   Int. Num. El.       :     1.00000000 (UP=    1.00000000 DN=    0.00000000)
   Exchange            :    -0.24192772
   Correlation         :    -0.00417621

                 **** Energy Check signals convergence ****

               *****************************************************
               *                     SUCCESS                       *
               *           SCF CONVERGED AFTER   1 CYCLES          *
               *****************************************************

Setting up the final grid:

General Integration Accuracy     IntAcc      ...  4.670
Radial Grid Type                 RadialGrid  ... Gauss-Chebyshev
Angular Grid (max. acc.)         AngularGrid ... Lebedev-302
Angular grid pruning method      GridPruning ... 3 (G Style)
Weight generation scheme         WeightScheme... Becke
Basis function cutoff            BFCut       ...    1.0000e-11
Integration weight cutoff        WCut        ...    1.0000e-14
Grids for H and He will be reduced by one unit

# of grid points (after initial pruning)     ...   3394 (   0.0 sec)
# of grid points (after weights+screening)   ...   3394 (   0.0 sec)
Grid point division into batches done        ...    0.0 sec
Reduced shell lists constructed in    0.0 sec

Total number of grid points                  ...     3394
Total number of batches                      ...       54
Average number of points per batch           ...       62
Average number of grid points per atom       ...     3394
Average number of shells per batch           ...     9.05 (90.55%)
Average number of basis functions per batch  ...    26.73 (89.09%)
Average number of large shells per batch     ...     8.56 (94.58%)
Average number of large basis fcns per batch ...    24.96 (93.40%)
Maximum spatial batch extension              ...  15.43, 15.43, 15.43 au
Average spatial batch extension              ...   4.51,  4.59,  4.61 au

Final grid set up in    0.0 sec
Final integration                            ... done (   0.0 sec)
Change in XC energy                          ...     0.000000011
Integrated number of electrons               ...     0.999999999
Previous integrated no of electrons          ...     0.999999998

----------------
TOTAL SCF ENERGY
----------------

Total Energy       :           -0.49901779 Eh             -13.57896 eV

Components:
Nuclear Repulsion  :            0.00000000 Eh               0.00000 eV
Electronic Energy  :           -0.49901779 Eh             -13.57896 eV
One Electron Energy:           -0.49959349 Eh             -13.59463 eV
Two Electron Energy:            0.00057570 Eh               0.01567 eV

Virial components:
Potential Energy   :           -0.99608250 Eh             -27.10478 eV
Kinetic Energy     :            0.49706471 Eh              13.52582 eV
Virial Ratio       :            2.00392922


DFT components:
N(Alpha)           :        0.999999999221 electrons
N(Beta)            :        0.000000000011 electrons
N(Total)           :        0.999999999232 electrons
E(X)               :       -0.241927705737 Eh       
E(C)               :       -0.004176207390 Eh       
E(XC)              :       -0.246103913126 Eh       
DFET-embed. en.    :        0.000000000000 Eh       

---------------
SCF CONVERGENCE
---------------

  Last Energy change         ...   -3.6204e-12  Tolerance :   1.0000e-08
  Last MAX-Density change    ...    9.1192e-11  Tolerance :   1.0000e-07
  Last RMS-Density change    ...    2.8850e-12  Tolerance :   5.0000e-09
  Last DIIS Error            ...    2.0232e-10  Tolerance :   5.0000e-07

             **** THE GBW FILE WAS UPDATED (H_0_2_UB3LYP_def2-qzvpp.sp.gbw) ****
             **** DENSITY FILE WAS UPDATED (H_0_2_UB3LYP_def2-qzvpp.sp.scfp) ****
             **** ENERGY FILE WAS UPDATED (H_0_2_UB3LYP_def2-qzvpp.sp.en.tmp) ****
----------------------
UHF SPIN CONTAMINATION
----------------------

Warning: in a DFT calculation there is little theoretical justification to 
         calculate <S**2> as in Hartree-Fock theory. We will do it anyways
         but you should keep in mind that the values have only limited relevance

Expectation value of <S**2>     :     0.750000
Ideal value S*(S+1) for S=0.5   :     0.750000
Deviation                       :     0.000000

             **** THE GBW FILE WAS UPDATED (H_0_2_UB3LYP_def2-qzvpp.sp.gbw) ****
             **** DENSITY FILE WAS UPDATED (H_0_2_UB3LYP_def2-qzvpp.sp.scfp) ****
----------------
ORBITAL ENERGIES
----------------
                 SPIN UP ORBITALS
  NO   OCC          E(Eh)            E(eV) 
   0   1.0000      -0.318920        -8.6783 
   1   0.0000       0.147344         4.0094 
   2   0.0000       0.397121        10.8062 
   3   0.0000       0.397121        10.8062 
   4   0.0000       0.397121        10.8062 
   5   0.0000       0.981190        26.6995 
   6   0.0000       1.848895        50.3110 
   7   0.0000       1.848895        50.3110 
   8   0.0000       1.848895        50.3110 
   9   0.0000       1.848895        50.3110 
  10   0.0000       1.848895        50.3110 
  11   0.0000       2.100984        57.1707 
  12   0.0000       2.100984        57.1707 
  13   0.0000       2.100984        57.1707 
  14   0.0000       4.884537       132.9150 
  15   0.0000       5.748368       156.4210 
  16   0.0000       5.748368       156.4210 
  17   0.0000       5.748368       156.4210 
  18   0.0000       5.748368       156.4211 
  19   0.0000       5.748368       156.4211 
  20   0.0000       5.748368       156.4211 
  21   0.0000       5.748369       156.4211 
  22   0.0000       7.354339       200.1217 
  23   0.0000       7.354339       200.1217 
  24   0.0000       7.354339       200.1217 
  25   0.0000       7.741711       210.6627 
  26   0.0000       7.741711       210.6627 
  27   0.0000       7.741711       210.6627 
  28   0.0000       7.741809       210.6653 
  29   0.0000       7.741809       210.6653 

                 SPIN DOWN ORBITALS
  NO   OCC          E(Eh)            E(eV) 
   0   0.0000      -0.035335        -0.9615 
   1   0.0000       0.260931         7.1003 
   2   0.0000       0.522447        14.2165 
   3   0.0000       0.522447        14.2165 
   4   0.0000       0.522447        14.2165 
   5   0.0000       1.190854        32.4048 
   6   0.0000       2.008485        54.6537 
   7   0.0000       2.008485        54.6537 
   8   0.0000       2.008485        54.6537 
   9   0.0000       2.008485        54.6537 
  10   0.0000       2.008485        54.6537 
  11   0.0000       2.317822        63.0711 
  12   0.0000       2.317822        63.0711 
  13   0.0000       2.317822        63.0711 
  14   0.0000       5.309792       144.4868 
  15   0.0000       5.964300       162.2968 
  16   0.0000       5.964300       162.2968 
  17   0.0000       5.964300       162.2968 
  18   0.0000       5.964305       162.2970 
  19   0.0000       5.964305       162.2970 
  20   0.0000       5.964305       162.2970 
  21   0.0000       5.964305       162.2970 
  22   0.0000       7.694880       209.3883 
  23   0.0000       7.694880       209.3883 
  24   0.0000       7.694880       209.3883 
  25   0.0000       8.033254       218.5960 
  26   0.0000       8.033254       218.5960 
  27   0.0000       8.033254       218.5960 
  28   0.0000       8.033448       218.6012 
  29   0.0000       8.033448       218.6012 

                    ********************************
                    * MULLIKEN POPULATION ANALYSIS *
                    ********************************

--------------------------------------------
MULLIKEN ATOMIC CHARGES AND SPIN POPULATIONS
--------------------------------------------
   0 H :    0.000000    1.000000
Sum of atomic charges         :    0.0000000
Sum of atomic spin populations:    1.0000000

-----------------------------------------------------
MULLIKEN REDUCED ORBITAL CHARGES AND SPIN POPULATIONS
-----------------------------------------------------
CHARGE
  0 H s       :     1.000000  s :     1.000000
      pz      :     0.000000  p :     0.000000
      px      :     0.000000
      py      :     0.000000
      dz2     :     0.000000  d :     0.000000
      dxz     :     0.000000
      dyz     :     0.000000
      dx2y2   :     0.000000
      dxy     :     0.000000
      f0      :     0.000000  f :     0.000000
      f+1     :     0.000000
      f-1     :     0.000000
      f+2     :     0.000000
      f-2     :     0.000000
      f+3     :     0.000000
      f-3     :     0.000000

SPIN
  0 H s       :     1.000000  s :     1.000000
      pz      :     0.000000  p :     0.000000
      px      :     0.000000
      py      :     0.000000
      dz2     :     0.000000  d :     0.000000
      dxz     :     0.000000
      dyz     :     0.000000
      dx2y2   :     0.000000
      dxy     :     0.000000
      f0      :     0.000000  f :     0.000000
      f+1     :     0.000000
      f-1     :     0.000000
      f+2     :     0.000000
      f-2     :     0.000000
      f+3     :     0.000000
      f-3     :     0.000000

------------------------
MULLIKEN OVERLAP CHARGES
------------------------



                     *******************************
                     * LOEWDIN POPULATION ANALYSIS *
                     *******************************

-------------------------------------------
LOEWDIN ATOMIC CHARGES AND SPIN POPULATIONS
-------------------------------------------
   0 H :    0.000000    1.000000

----------------------------------------------------
LOEWDIN REDUCED ORBITAL CHARGES AND SPIN POPULATIONS
----------------------------------------------------
CHARGE
  0 H s       :     1.000000  s :     1.000000
      pz      :     0.000000  p :     0.000000
      px      :     0.000000
      py      :     0.000000
      dz2     :     0.000000  d :     0.000000
      dxz     :     0.000000
      dyz     :     0.000000
      dx2y2   :     0.000000
      dxy     :     0.000000
      f0      :     0.000000  f :     0.000000
      f+1     :     0.000000
      f-1     :     0.000000
      f+2     :     0.000000
      f-2     :     0.000000
      f+3     :     0.000000
      f-3     :     0.000000

SPIN
  0 H s       :     1.000000  s :     1.000000
      pz      :     0.000000  p :     0.000000
      px      :     0.000000
      py      :     0.000000
      dz2     :     0.000000  d :     0.000000
      dxz     :     0.000000
      dyz     :     0.000000
      dx2y2   :     0.000000
      dxy     :     0.000000
      f0      :     0.000000  f :     0.000000
      f+1     :     0.000000
      f-1     :     0.000000
      f+2     :     0.000000
      f-2     :     0.000000
      f+3     :     0.000000
      f-3     :     0.000000

---------------------------------
LOEWDIN BOND ORDERS (THRESH 0.050000)
---------------------------------


------------------------------------------
LOEWDIN REDUCED ORBITAL POPULATIONS PER MO
-------------------------------------------
THRESHOLD FOR PRINTING IS 0.1%
SPIN UP
                      0         1         2         3         4         5   
                  -0.31892   0.14734   0.39712   0.39712   0.39712   0.98119
                   1.00000   0.00000   0.00000   0.00000   0.00000   0.00000
                  --------  --------  --------  --------  --------  --------
 0 H  s             100.0     100.0       0.0       0.0       0.0     100.0
 0 H  pz              0.0       0.0       0.1       0.0      99.9       0.0
 0 H  px              0.0       0.0      29.6      70.3       0.1       0.0
 0 H  py              0.0       0.0      70.3      29.7       0.0       0.0

                      6         7         8         9        10        11   
                   1.84890   1.84890   1.84890   1.84890   1.84890   2.10098
                   0.00000   0.00000   0.00000   0.00000   0.00000   0.00000
                  --------  --------  --------  --------  --------  --------
 0 H  pz              0.0       0.0       0.0       0.0       0.0       2.2
 0 H  px              0.0       0.0       0.0       0.0       0.0      86.2
 0 H  py              0.0       0.0       0.0       0.0       0.0      11.6
 0 H  dz2             0.0       0.0       0.0      47.3      52.7       0.0
 0 H  dxz             9.0       6.2      84.9       0.0       0.0       0.0
 0 H  dyz            84.6       3.3      12.1       0.0       0.0       0.0
 0 H  dx2y2           0.0       0.0       0.0      52.7      47.3       0.0
 0 H  dxy             6.4      90.6       3.0       0.0       0.0       0.0

                     12        13        14        15        16        17   
                   2.10098   2.10098   4.88454   5.74837   5.74837   5.74837
                   0.00000   0.00000   0.00000   0.00000   0.00000   0.00000
                  --------  --------  --------  --------  --------  --------
 0 H  s               0.0       0.0     100.0       0.0       0.0       0.0
 0 H  pz             43.6      54.2       0.0       0.0       0.0       0.0
 0 H  px              2.7      11.1       0.0       0.0       0.0       0.0
 0 H  py             53.7      34.7       0.0       0.0       0.0       0.0
 0 H  f+1             0.0       0.0       0.0      39.0      19.9       3.6
 0 H  f-1             0.0       0.0       0.0      23.3      35.7       3.5
 0 H  f+2             0.0       0.0       0.0       0.2      11.2      88.6
 0 H  f+3             0.0       0.0       0.0      23.4      11.9       2.2
 0 H  f-3             0.0       0.0       0.0      14.0      21.4       2.1

                     18        19        20        21        22        23   
                   5.74837   5.74837   5.74837   5.74837   7.35434   7.35434
                   0.00000   0.00000   0.00000   0.00000   0.00000   0.00000
                  --------  --------  --------  --------  --------  --------
 0 H  pz              0.0       0.0       0.0       0.0      30.7      10.9
 0 H  px              0.0       0.0       0.0       0.0      62.5       0.6
 0 H  py              0.0       0.0       0.0       0.0       6.8      88.5
 0 H  f0             17.6      36.5      45.9       0.0       0.0       0.0
 0 H  f+1            28.5       0.1       8.8       0.0       0.0       0.0
 0 H  f-1             2.4      23.7      11.5       0.0       0.0       0.0
 0 H  f-2             0.0       0.0       0.0     100.0       0.0       0.0
 0 H  f+3            47.6       0.2      14.7       0.0       0.0       0.0
 0 H  f-3             4.0      39.4      19.1       0.0       0.0       0.0

                     24        25        26        27        28        29   
                   7.35434   7.74171   7.74171   7.74171   7.74181   7.74181
                   0.00000   0.00000   0.00000   0.00000   0.00000   0.00000
                  --------  --------  --------  --------  --------  --------
 0 H  pz             58.4       0.0       0.0       0.0       0.0       0.0
 0 H  px             36.9       0.0       0.0       0.0       0.0       0.0
 0 H  py              4.7       0.0       0.0       0.0       0.0       0.0
 0 H  dz2             0.0       0.0       0.0       0.0      47.3      52.7
 0 H  dxz             0.0      77.9      19.7       2.4       0.0       0.0
 0 H  dyz             0.0      20.7      79.0       0.2       0.0       0.0
 0 H  dx2y2           0.0       0.0       0.0       0.0      52.7      47.3
 0 H  dxy             0.0       1.3       1.2      97.4       0.0       0.0


SPIN DOWN
                      0         1         2         3         4         5   
                  -0.03533   0.26093   0.52245   0.52245   0.52245   1.19085
                   0.00000   0.00000   0.00000   0.00000   0.00000   0.00000
                  --------  --------  --------  --------  --------  --------
 0 H  s             100.0     100.0       0.0       0.0       0.0     100.0
 0 H  pz              0.0       0.0      67.3      10.9      21.8       0.0
 0 H  px              0.0       0.0      11.5      88.1       0.5       0.0
 0 H  py              0.0       0.0      21.3       1.0      77.7       0.0

                      6         7         8         9        10        11   
                   2.00849   2.00849   2.00849   2.00849   2.00849   2.31782
                   0.00000   0.00000   0.00000   0.00000   0.00000   0.00000
                  --------  --------  --------  --------  --------  --------
 0 H  pz              0.0       0.0       0.0       0.0       0.0      13.2
 0 H  px              0.0       0.0       0.0       0.0       0.0      78.8
 0 H  py              0.0       0.0       0.0       0.0       0.0       8.0
 0 H  dz2             0.0       0.0       0.0      60.6      39.4       0.0
 0 H  dxz            19.4      28.1      52.5       0.0       0.0       0.0
 0 H  dyz            80.1      10.2       9.7       0.0       0.0       0.0
 0 H  dx2y2           0.0       0.0       0.0      39.4      60.6       0.0
 0 H  dxy             0.4      61.7      37.8       0.0       0.0       0.0

                     12        13        14        15        16        17   
                   2.31782   2.31782   5.30979   5.96430   5.96430   5.96430
                   0.00000   0.00000   0.00000   0.00000   0.00000   0.00000
                  --------  --------  --------  --------  --------  --------
 0 H  s               0.0       0.0     100.0       0.0       0.0       0.0
 0 H  pz             27.8      59.0       0.0       0.0       0.0       0.0
 0 H  px             19.9       1.3       0.0       0.0       0.0       0.0
 0 H  py             52.3      39.7       0.0       0.0       0.0       0.0
 0 H  f+1             0.0       0.0       0.0      39.3       2.5      20.7
 0 H  f-1             0.0       0.0       0.0       5.6      30.3      26.6
 0 H  f+2             0.0       0.0       0.0      28.2      47.6      24.2
 0 H  f+3             0.0       0.0       0.0      23.6       1.5      12.4
 0 H  f-3             0.0       0.0       0.0       3.4      18.2      16.0

                     18        19        20        21        22        23   
                   5.96430   5.96430   5.96430   5.96431   7.69488   7.69488
                   0.00000   0.00000   0.00000   0.00000   0.00000   0.00000
                  --------  --------  --------  --------  --------  --------
 0 H  pz              0.0       0.0       0.0       0.0      75.4       0.4
 0 H  px              0.0       0.0       0.0       0.0       1.0      98.8
 0 H  py              0.0       0.0       0.0       0.0      23.7       0.8
 0 H  f0             50.0      37.8      12.3       0.0       0.0       0.0
 0 H  f+1             0.0       9.5      28.0       0.0       0.0       0.0
 0 H  f-1            18.8      13.8       4.9       0.0       0.0       0.0
 0 H  f-2             0.0       0.0       0.0     100.0       0.0       0.0
 0 H  f+3             0.0      15.8      46.7       0.0       0.0       0.0
 0 H  f-3            31.3      23.1       8.2       0.0       0.0       0.0

                     24        25        26        27        28        29   
                   7.69488   8.03325   8.03325   8.03325   8.03345   8.03345
                   0.00000   0.00000   0.00000   0.00000   0.00000   0.00000
                  --------  --------  --------  --------  --------  --------
 0 H  pz             24.3       0.0       0.0       0.0       0.0       0.0
 0 H  px              0.2       0.0       0.0       0.0       0.0       0.0
 0 H  py             75.5       0.0       0.0       0.0       0.0       0.0
 0 H  dz2             0.0       0.0       0.0       0.0      39.4      60.6
 0 H  dxz             0.0       4.5      50.9      44.6       0.0       0.0
 0 H  dyz             0.0      12.1      48.1      39.8       0.0       0.0
 0 H  dx2y2           0.0       0.0       0.0       0.0      60.6      39.4
 0 H  dxy             0.0      83.4       1.0      15.6       0.0       0.0



                      *****************************
                      * MAYER POPULATION ANALYSIS *
                      *****************************

  NA   - Mulliken gross atomic population
  ZA   - Total nuclear charge
  QA   - Mulliken gross atomic charge
  VA   - Mayer's total valence
  BVA  - Mayer's bonded valence
  FA   - Mayer's free valence

  ATOM       NA         ZA         QA         VA         BVA        FA
  0 H      1.0000     1.0000     0.0000     1.0000     0.0000     1.0000

  Mayer bond orders larger than 0.100000


Local spin analysis not attempted because no beta electrons available
CleanUpVectors: The d-vectors have cracked symmetry at i=25
--------------------------
ATOM BASIS FOR ELEMENT H 
--------------------------
 NewGTO H 
 S 7
    1        190.691690000000         0.000746148634
    2         28.605532000000         0.005761270087
    3          6.509594300000         0.029467194828
    4          1.841245500000         0.113421253126
    5          0.598537250000         0.297373974464
    6          0.213976240000         0.434327636148
    7          0.080316286000         0.272879461519
 S 7
    1        190.691690000000         0.000611783528
    2         28.605532000000         0.004723790915
    3          6.509594300000         0.024160795296
    4          1.841245500000         0.092996557529
    5          0.598537250000        -0.026070716938
    6          0.213976240000         1.483571906219
    7          0.080316286000        -1.802545632156
 S 7
    1        190.691690000000         0.000397643430
    2         28.605532000000         0.003070341615
    3          6.509594300000         0.015703890493
    4          1.841245500000         0.060445351146
    5          0.598537250000         2.006808321131
    6          0.213976240000        -3.068746630638
    7          0.080316286000         1.361602848394
 S 7
    1        190.691690000000         0.009413008017
    2         28.605532000000         0.072681070582
    3          6.509594300000         0.371742208725
    4          1.841245500000         1.430861247559
    5          0.598537250000        -2.652805629875
    6          0.213976240000         1.916276657805
    7          0.080316286000        -0.660654063334
 P 3
    1          2.292000000000         0.066924398368
    2          0.838000000000        -0.217801565840
    3          0.292000000000         1.128737901513
 P 3
    1          2.292000000000        -0.207892321783
    2          0.838000000000         1.633377173655
    3          0.292000000000        -0.998005481654
 P 3
    1          2.292000000000         1.642213201139
    2          0.838000000000        -1.536737672067
    3          0.292000000000         0.551344617286
 D 2
    1          2.062000000000        -0.138728594971
    2          0.662000000000         1.074752046789
 F 1
    1          1.397000000000         0.999999999935
 D 6
    1          2.062000000000         1.081030373200
    2          2.062000000000        -0.557869400381
    3          2.062000000000         0.142151854218
    4          0.662000000000        -0.532669859700
    5          0.662000000000         0.274886092564
    6          0.662000000000        -0.070044293037
 end
  // -----------------------------------------------
  // The basis set
  // -----------------------------------------------
  BAS[ATNO] = new BFNGauss[NSH];
  // Basis function   1 L = s
  InitBFNGauss(BAS[ATNO][  0]);
  BAS[ATNO][  0].l  = 0;
  BAS[ATNO][  0].ng = 7;
  BAS[ATNO][  0].a[  0] =       190.691690000000;     BAS[ATNO][  0].d[  0] =         0.000746148634;
  BAS[ATNO][  0].a[  1] =        28.605532000000;     BAS[ATNO][  0].d[  1] =         0.005761270087;
  BAS[ATNO][  0].a[  2] =         6.509594300000;     BAS[ATNO][  0].d[  2] =         0.029467194828;
  BAS[ATNO][  0].a[  3] =         1.841245500000;     BAS[ATNO][  0].d[  3] =         0.113421253126;
  BAS[ATNO][  0].a[  4] =         0.598537250000;     BAS[ATNO][  0].d[  4] =         0.297373974464;
  BAS[ATNO][  0].a[  5] =         0.213976240000;     BAS[ATNO][  0].d[  5] =         0.434327636148;
  BAS[ATNO][  0].a[  6] =         0.080316286000;     BAS[ATNO][  0].d[  6] =         0.272879461519;

  // Basis function   2 L = s
  InitBFNGauss(BAS[ATNO][  1]);
  BAS[ATNO][  1].l  = 0;
  BAS[ATNO][  1].ng = 7;
  BAS[ATNO][  1].a[  0] =       190.691690000000;     BAS[ATNO][  1].d[  0] =        -0.000611783528;
  BAS[ATNO][  1].a[  1] =        28.605532000000;     BAS[ATNO][  1].d[  1] =        -0.004723790915;
  BAS[ATNO][  1].a[  2] =         6.509594300000;     BAS[ATNO][  1].d[  2] =        -0.024160795296;
  BAS[ATNO][  1].a[  3] =         1.841245500000;     BAS[ATNO][  1].d[  3] =        -0.092996557529;
  BAS[ATNO][  1].a[  4] =         0.598537250000;     BAS[ATNO][  1].d[  4] =         0.026070716938;
  BAS[ATNO][  1].a[  5] =         0.213976240000;     BAS[ATNO][  1].d[  5] =        -1.483571906219;
  BAS[ATNO][  1].a[  6] =         0.080316286000;     BAS[ATNO][  1].d[  6] =         1.802545632156;

  // Basis function   3 L = s
  InitBFNGauss(BAS[ATNO][  2]);
  BAS[ATNO][  2].l  = 0;
  BAS[ATNO][  2].ng = 7;
  BAS[ATNO][  2].a[  0] =       190.691690000000;     BAS[ATNO][  2].d[  0] =        -0.000397643430;
  BAS[ATNO][  2].a[  1] =        28.605532000000;     BAS[ATNO][  2].d[  1] =        -0.003070341615;
  BAS[ATNO][  2].a[  2] =         6.509594300000;     BAS[ATNO][  2].d[  2] =        -0.015703890493;
  BAS[ATNO][  2].a[  3] =         1.841245500000;     BAS[ATNO][  2].d[  3] =        -0.060445351146;
  BAS[ATNO][  2].a[  4] =         0.598537250000;     BAS[ATNO][  2].d[  4] =        -2.006808321131;
  BAS[ATNO][  2].a[  5] =         0.213976240000;     BAS[ATNO][  2].d[  5] =         3.068746630638;
  BAS[ATNO][  2].a[  6] =         0.080316286000;     BAS[ATNO][  2].d[  6] =        -1.361602848394;

  // Basis function   4 L = s
  InitBFNGauss(BAS[ATNO][  3]);
  BAS[ATNO][  3].l  = 0;
  BAS[ATNO][  3].ng = 7;
  BAS[ATNO][  3].a[  0] =       190.691690000000;     BAS[ATNO][  3].d[  0] =        -0.009413008017;
  BAS[ATNO][  3].a[  1] =        28.605532000000;     BAS[ATNO][  3].d[  1] =        -0.072681070582;
  BAS[ATNO][  3].a[  2] =         6.509594300000;     BAS[ATNO][  3].d[  2] =        -0.371742208725;
  BAS[ATNO][  3].a[  3] =         1.841245500000;     BAS[ATNO][  3].d[  3] =        -1.430861247559;
  BAS[ATNO][  3].a[  4] =         0.598537250000;     BAS[ATNO][  3].d[  4] =         2.652805629875;
  BAS[ATNO][  3].a[  5] =         0.213976240000;     BAS[ATNO][  3].d[  5] =        -1.916276657805;
  BAS[ATNO][  3].a[  6] =         0.080316286000;     BAS[ATNO][  3].d[  6] =         0.660654063334;

  // Basis function   5 L = p
  InitBFNGauss(BAS[ATNO][  4]);
  BAS[ATNO][  4].l  = 1;
  BAS[ATNO][  4].ng = 3;
  BAS[ATNO][  4].a[  0] =         2.292000000000;     BAS[ATNO][  4].d[  0] =         0.066924398368;
  BAS[ATNO][  4].a[  1] =         0.838000000000;     BAS[ATNO][  4].d[  1] =        -0.217801565840;
  BAS[ATNO][  4].a[  2] =         0.292000000000;     BAS[ATNO][  4].d[  2] =         1.128737901513;

  // Basis function   6 L = p
  InitBFNGauss(BAS[ATNO][  5]);
  BAS[ATNO][  5].l  = 1;
  BAS[ATNO][  5].ng = 3;
  BAS[ATNO][  5].a[  0] =         2.292000000000;     BAS[ATNO][  5].d[  0] =        -0.207892321783;
  BAS[ATNO][  5].a[  1] =         0.838000000000;     BAS[ATNO][  5].d[  1] =         1.633377173655;
  BAS[ATNO][  5].a[  2] =         0.292000000000;     BAS[ATNO][  5].d[  2] =        -0.998005481654;

  // Basis function   7 L = p
  InitBFNGauss(BAS[ATNO][  6]);
  BAS[ATNO][  6].l  = 1;
  BAS[ATNO][  6].ng = 3;
  BAS[ATNO][  6].a[  0] =         2.292000000000;     BAS[ATNO][  6].d[  0] =         1.642213201139;
  BAS[ATNO][  6].a[  1] =         0.838000000000;     BAS[ATNO][  6].d[  1] =        -1.536737672067;
  BAS[ATNO][  6].a[  2] =         0.292000000000;     BAS[ATNO][  6].d[  2] =         0.551344617286;

  // Basis function   8 L = d
  InitBFNGauss(BAS[ATNO][  7]);
  BAS[ATNO][  7].l  = 2;
  BAS[ATNO][  7].ng = 2;
  BAS[ATNO][  7].a[  0] =         2.062000000000;     BAS[ATNO][  7].d[  0] =        -0.138728594971;
  BAS[ATNO][  7].a[  1] =         0.662000000000;     BAS[ATNO][  7].d[  1] =         1.074752046789;

  // Basis function   9 L = f
  InitBFNGauss(BAS[ATNO][  8]);
  BAS[ATNO][  8].l  = 3;
  BAS[ATNO][  8].ng = 1;
  BAS[ATNO][  8].a[  0] =         1.397000000000;     BAS[ATNO][  8].d[  0] =         0.999999999935;

  // Basis function  10 L = d
  InitBFNGauss(BAS[ATNO][  9]);
  BAS[ATNO][  9].l  = 2;
  BAS[ATNO][  9].ng = 6;
  BAS[ATNO][  9].a[  0] =         2.062000000000;     BAS[ATNO][  9].d[  0] =         1.081030373200;
  BAS[ATNO][  9].a[  1] =         2.062000000000;     BAS[ATNO][  9].d[  1] =        -0.557869400381;
  BAS[ATNO][  9].a[  2] =         2.062000000000;     BAS[ATNO][  9].d[  2] =         0.142151854218;
  BAS[ATNO][  9].a[  3] =         0.662000000000;     BAS[ATNO][  9].d[  3] =        -0.532669859700;
  BAS[ATNO][  9].a[  4] =         0.662000000000;     BAS[ATNO][  9].d[  4] =         0.274886092564;
  BAS[ATNO][  9].a[  5] =         0.662000000000;     BAS[ATNO][  9].d[  5] =        -0.070044293037;

-------
TIMINGS
-------

Total SCF time: 0 days 0 hours 0 min 0 sec 

Total time                  ....       0.481 sec
Sum of individual times     ....       0.282 sec  ( 58.5%)

Fock matrix formation       ....       0.235 sec  ( 48.9%)
  XC integration            ....       0.039 sec  ( 16.7% of F)
    Basis function eval.    ....       0.004 sec  ( 11.3% of XC)
    Density eval.           ....       0.005 sec  ( 13.7% of XC)
    XC-Functional eval.     ....       0.008 sec  ( 21.6% of XC)
    XC-Potential eval.      ....       0.004 sec  ( 10.6% of XC)
Diagonalization             ....       0.001 sec  (  0.3%)
Density matrix formation    ....       0.000 sec  (  0.0%)
Population analysis         ....       0.021 sec  (  4.5%)
Initial guess               ....       0.002 sec  (  0.4%)
Orbital Transformation      ....       0.000 sec  (  0.0%)
Orbital Orthonormalization  ....       0.000 sec  (  0.0%)
DIIS solution               ....       0.000 sec  (  0.0%)
Grid generation             ....       0.022 sec  (  4.6%)

-------------------------   --------------------
FINAL SINGLE POINT ENERGY        -0.499017787889
-------------------------   --------------------


                            ***************************************
                            *     ORCA property calculations      *
                            ***************************************

                                    ---------------------
                                    Active property flags
                                    ---------------------
   (+) Dipole Moment


------------------------------------------------------------------------------
                       ORCA ELECTRIC PROPERTIES CALCULATION
------------------------------------------------------------------------------

Dipole Moment Calculation                       ... on
Quadrupole Moment Calculation                   ... off
Polarizability Calculation                      ... off
GBWName                                         ... H_0_2_UB3LYP_def2-qzvpp.sp.gbw
Electron density file                           ... H_0_2_UB3LYP_def2-qzvpp.sp.scfp
The origin for moment calculation is the CENTER OF MASS  = ( 0.000000,  0.000000  0.000000)

-------------
DIPOLE MOMENT
-------------
                                X             Y             Z
Electronic contribution:     -0.00000      -0.00000       0.00000
Nuclear contribution   :      0.00000       0.00000       0.00000
                        -----------------------------------------
Total Dipole Moment    :     -0.00000      -0.00000       0.00000
                        -----------------------------------------
Magnitude (a.u.)       :      0.00000
Magnitude (Debye)      :      0.00000



--------------------
Rotational spectrum 
--------------------
 
Rotational constants in cm-1:     0.000000     0.000000     0.000000 
Rotational constants in MHz :     0.000000     0.000000     0.000000 

 Dipole components along the rotational axes: 
x,y,z [a.u.] :    -0.000000    -0.000000     0.000000 
x,y,z [Debye]:    -0.000000    -0.000000     0.000000 

 

Timings for individual modules:

Sum of individual times         ...        0.763 sec (=   0.013 min)
GTO integral calculation        ...        0.243 sec (=   0.004 min)  31.9 %
SCF iterations                  ...        0.520 sec (=   0.009 min)  68.1 %
                             ****ORCA TERMINATED NORMALLY****
TOTAL RUN TIME: 0 days 0 hours 0 minutes 0 seconds 991 msec
