41
Coordinates from ORCA-job tBu3C--Cl_0_1_bp86_xtb_6-31gpol_Int-SN1.scan Relaxed Surface Scan Step 1
  C      -1.579422      0.215429     -0.177264
  C      -0.120040     -0.319793      0.005192
  Cl     -2.921469     -2.150196      1.088725
  C      -2.276436      0.061690     -1.570224
  C      -2.134455      1.269576      0.838036
  C      -2.094113      0.801082      2.326414
  C      -3.604365      1.716957      0.635263
  C      -1.284101      2.580040      0.723323
  C       0.047664     -1.835195     -0.329333
  C       0.491718     -0.188239      1.423013
  C       0.837359      0.488663     -0.934686
  C      -1.713725     -1.037535     -2.506643
  C      -2.119651      1.401794     -2.365911
  C      -3.799266     -0.270393     -1.485643
  H      -0.240723      2.425040      0.970305
  H      -1.691746      3.298216      1.431335
  H      -1.347214      3.005649     -0.273198
  H      -4.273694      0.879184      0.795553
  H      -3.792077      2.167114     -0.331275
  H      -3.828436      2.475513      1.383666
  H      -2.276676     -0.267651      2.374923
  H      -2.891074      1.301258      2.870659
  H      -1.166100      1.043643      2.826605
  H      -0.668587     -0.903147     -2.755139
  H      -2.267327     -0.993348     -3.443279
  H      -1.872581     -2.016549     -2.068627
  H       0.589282      0.374811     -1.983089
  H       1.844010      0.104241     -0.786012
  H       0.832888      1.545681     -0.687950
  H      -0.060870     -0.802531      2.125046
  H       0.545715      0.832526      1.779727
  H       1.514111     -0.560623      1.381117
  H      -0.852800     -2.370615     -0.045836
  H       0.871490     -2.232400      0.258082
  H       0.279727     -2.020888     -1.369480
  H      -1.074359      1.639523     -2.536414
  H      -2.591149      2.241318     -1.869433
  H      -2.604677      1.268841     -3.330437
  H      -3.985180     -0.900684     -0.621882
  H      -4.083867     -0.828428     -2.373968
  H      -4.427767      0.609234     -1.447266
>
41
Coordinates from ORCA-job tBu3C--Cl_0_1_bp86_xtb_6-31gpol_Int-SN1.scan Relaxed Surface Scan Step 2
  C      -1.568938      0.233537     -0.186784
  C      -0.118160     -0.310468      0.005274
  Cl     -2.955410     -2.211127      1.121387
  C      -2.268208      0.066163     -1.572781
  C      -2.133230      1.275363      0.830148
  C      -2.102789      0.785732      2.312315
  C      -3.601484      1.728030      0.625894
  C      -1.280427      2.586179      0.731933
  C       0.029462     -1.831066     -0.316439
  C       0.498076     -0.175947      1.421071
  C       0.845639      0.483584     -0.941159
  C      -1.703941     -1.028827     -2.513445
  C      -2.128463      1.407203     -2.370947
  C      -3.786411     -0.283235     -1.471125
  H      -0.235456      2.426144      0.968027
  H      -1.682026      3.294184      1.453373
  H      -1.350253      3.025948     -0.258219
  H      -4.274131      0.893227      0.787980
  H      -3.788928      2.177937     -0.340927
  H      -3.821830      2.488001      1.374025
  H      -2.287739     -0.283946      2.342341
  H      -2.902953      1.279095      2.858013
  H      -1.177979      1.020097      2.821923
  H      -0.658872     -0.893983     -2.762352
  H      -2.258528     -0.980676     -3.449358
  H      -1.862817     -2.009829     -2.079820
  H       0.587984      0.377484     -1.987915
  H       1.847239      0.083477     -0.800664
  H       0.858198      1.539967     -0.691055
  H      -0.050542     -0.791084      2.125518
  H       0.552516      0.844779      1.778050
  H       1.520635     -0.547491      1.374892
  H      -0.878757     -2.350699     -0.025892
  H       0.848595     -2.233473      0.273931
  H       0.257974     -2.028930     -1.354970
  H      -1.085851      1.644676     -2.558681
  H      -2.590463      2.246802     -1.866024
  H      -2.629913      1.274264     -3.326940
  H      -3.953636     -0.914420     -0.603391
  H      -4.073506     -0.846823     -2.355093
  H      -4.424659      0.588960     -1.428118
>
41
Coordinates from ORCA-job tBu3C--Cl_0_1_bp86_xtb_6-31gpol_Int-SN1.scan Relaxed Surface Scan Step 3
  C      -1.559122      0.251221     -0.196363
  C      -0.116139     -0.300762      0.005740
  Cl     -2.990040     -2.272585      1.153777
  C      -2.259941      0.070278     -1.576362
  C      -2.132499      1.281546      0.822402
  C      -2.113144      0.770558      2.297714
  C      -3.598829      1.740243      0.616573
  C      -1.276901      2.592183      0.742405
  C       0.012367     -1.826413     -0.300803
  C       0.503773     -0.161321      1.419632
  C       0.854405      0.477608     -0.947379
  C      -1.692922     -1.020326     -2.520720
  C      -2.138213      1.411529     -2.377783
  C      -3.772767     -0.297915     -1.459212
  H      -0.228207      2.425250      0.955107
  H      -1.664501      3.284683      1.486066
  H      -1.362958      3.053250     -0.237013
  H      -4.275042      0.909015      0.782734
  H      -3.786958      2.188122     -0.351116
  H      -3.814341      2.503220      1.363157
  H      -2.309101     -0.298201      2.311007
  H      -2.911051      1.264537      2.846237
  H      -1.189016      0.988733      2.815355
  H      -0.647127     -0.886700     -2.767490
  H      -2.246108     -0.966770     -3.457249
  H      -1.854371     -2.003350     -2.092428
  H       0.581076      0.389424     -1.991600
  H       1.848302      0.053841     -0.823230
  H       0.892994      1.531096     -0.686793
  H      -0.039496     -0.779038      2.126107
  H       0.555665      0.859322      1.777424
  H       1.527578     -0.529098      1.369441
  H      -0.899413     -2.332840      0.004134
  H       0.832714     -2.230244      0.286986
  H       0.230074     -2.038794     -1.338616
  H      -1.099205      1.642596     -2.593002
  H      -2.579827      2.254138     -1.860251
  H      -2.666026      1.281616     -3.319793
  H      -3.921675     -0.936785     -0.592891
  H      -4.062400     -0.859602     -2.343624
  H      -4.421589      0.565546     -1.404286
>
41
Coordinates from ORCA-job tBu3C--Cl_0_1_bp86_xtb_6-31gpol_Int-SN1.scan Relaxed Surface Scan Step 4
  C      -1.549150      0.268532     -0.205505
  C      -0.113212     -0.291075      0.005886
  Cl     -3.025390     -2.334209      1.186061
  C      -2.251798      0.074648     -1.579879
  C      -2.131657      1.288024      0.814985
  C      -2.124194      0.755784      2.283243
  C      -3.596224      1.752013      0.607123
  C      -1.274119      2.598583      0.753364
  C      -0.004229     -1.821512     -0.285637
  C       0.510842     -0.147702      1.417768
  C       0.863875      0.471568     -0.953508
  C      -1.683071     -1.012230     -2.527808
  C      -2.147819      1.415527     -2.384719
  C      -3.759104     -0.311722     -1.446774
  H      -0.222337      2.426353      0.944621
  H      -1.649196      3.275605      1.517334
  H      -1.374775      3.079890     -0.215129
  H      -4.275897      0.924160      0.776452
  H      -3.784305      2.198193     -0.361433
  H      -3.807720      2.517551      1.352329
  H      -2.330634     -0.311746      2.279944
  H      -2.920618      1.249729      2.834038
  H      -1.201212      0.958423      2.808696
  H      -0.636714     -0.879845     -2.773096
  H      -2.235468     -0.953567     -3.464574
  H      -1.846827     -1.997120     -2.104533
  H       0.576486      0.400532     -1.995076
  H       1.849668      0.025413     -0.844646
  H       0.927621      1.521732     -0.683615
  H      -0.027017     -0.767721      2.126461
  H       0.560916      0.872827      1.776313
  H       1.535619     -0.512332      1.363123
  H      -0.919505     -2.314449      0.032970
  H       0.816663     -2.227379      0.300067
  H       0.202899     -2.047406     -1.322531
  H      -1.113102      1.640803     -2.626317
  H      -2.569961      2.261066     -1.856181
  H      -2.700392      1.288053     -3.312691
  H      -3.889885     -0.957713     -0.581995
  H      -4.051754     -0.871969     -2.331159
  H      -4.417286      0.543499     -1.379980
>
41
Coordinates from ORCA-job tBu3C--Cl_0_1_bp86_xtb_6-31gpol_Int-SN1.scan Relaxed Surface Scan Step 5
  C      -1.539936      0.285509     -0.214576
  C      -0.110731     -0.281328      0.006060
  Cl     -3.061035     -2.396406      1.218458
  C      -2.243787      0.079029     -1.583961
  C      -2.130763      1.294953      0.807665
  C      -2.134327      0.741194      2.268444
  C      -3.593641      1.764698      0.598669
  C      -1.271241      2.605013      0.764746
  C      -0.021418     -1.816376     -0.270160
  C       0.516738     -0.133486      1.416300
  C       0.873289      0.464851     -0.959253
  C      -1.671900     -1.003847     -2.535044
  C      -2.158432      1.419125     -2.392413
  C      -3.745085     -0.326661     -1.435645
  H      -0.216032      2.427516      0.929604
  H      -1.630407      3.264019      1.551709
  H      -1.390003      3.109049     -0.190290
  H      -4.277157      0.940781      0.772203
  H      -3.782194      2.208514     -0.370940
  H      -3.800155      2.533396      1.342123
  H      -2.350734     -0.324757      2.249088
  H      -2.928962      1.234785      2.822205
  H      -1.212201      0.928237      2.800762
  H      -0.624701     -0.872256     -2.777419
  H      -2.222397     -0.940109     -3.472674
  H      -1.837904     -1.990815     -2.117278
  H       0.570724      0.414750     -1.997571
  H       1.849158     -0.006307     -0.868193
  H       0.965618      1.510143     -0.678042
  H      -0.015462     -0.756051      2.127172
  H       0.563746      0.887024      1.775525
  H       1.542803     -0.494061      1.357726
  H      -0.939735     -2.296137      0.061426
  H       0.799801     -2.224426      0.313625
  H       0.175147     -2.055524     -1.305948
  H      -1.129292      1.637145     -2.663649
  H      -2.557733      2.268308     -1.852416
  H      -2.738397      1.294774     -3.303899
  H      -3.858431     -0.979069     -0.572525
  H      -4.039841     -0.886175     -2.319843
  H      -4.412973      0.519786     -1.357778
>
41
Coordinates from ORCA-job tBu3C--Cl_0_1_bp86_xtb_6-31gpol_Int-SN1.scan Relaxed Surface Scan Step 6
  C      -1.530651      0.301300     -0.223142
  C      -0.107433     -0.271832      0.006607
  Cl     -3.097441     -2.458759      1.252406
  C      -2.235416      0.083412     -1.588100
  C      -2.130512      1.301147      0.800320
  C      -2.145566      0.726876      2.253645
  C      -3.591830      1.775323      0.589119
  C      -1.270487      2.611437      0.776277
  C      -0.037023     -1.811195     -0.253399
  C       0.523885     -0.118693      1.414750
  C       0.883384      0.457234     -0.964900
  C      -1.661816     -0.995538     -2.542859
  C      -2.167585      1.422398     -2.400167
  C      -3.730828     -0.339567     -1.424368
  H      -0.211305      2.430354      0.907319
  H      -1.609437      3.248505      1.589773
  H      -1.413192      3.141331     -0.161626
  H      -4.278834      0.955311      0.767763
  H      -3.780803      2.214905     -0.382398
  H      -3.793852      2.548209      1.329565
  H      -2.370680     -0.337510      2.219896
  H      -2.939465      1.219528      2.809465
  H      -1.224844      0.899884      2.792609
  H      -0.613360     -0.866352     -2.781340
  H      -2.209755     -0.924552     -3.481554
  H      -1.831986     -1.984722     -2.131902
  H       0.562572      0.435201     -1.998566
  H       1.846410     -0.043305     -0.897356
  H       1.010386      1.494903     -0.668418
  H      -0.001454     -0.744149      2.128293
  H       0.566681      0.901903      1.774420
  H       1.551578     -0.474039      1.351526
  H      -0.958168     -2.278723      0.089617
  H       0.783787     -2.220944      0.329947
  H       0.150407     -2.063239     -1.287557
  H      -1.145839      1.627894     -2.707742
  H      -2.535149      2.277212     -1.846987
  H      -2.780875      1.304575     -3.290413
  H      -3.828534     -0.997304     -0.562611
  H      -4.028364     -0.898901     -2.307853
  H      -4.406586      0.499294     -1.336067
>
41
Coordinates from ORCA-job tBu3C--Cl_0_1_bp86_xtb_6-31gpol_Int-SN1.scan Relaxed Surface Scan Step 7
  C      -1.522149      0.315968     -0.231003
  C      -0.104517     -0.262736      0.007645
  Cl     -3.133942     -2.522473      1.287344
  C      -2.227455      0.086732     -1.591865
  C      -2.130444      1.307458      0.792937
  C      -2.157144      0.713793      2.238921
  C      -3.589568      1.787306      0.577553
  C      -1.268746      2.617057      0.787770
  C      -0.052263     -1.805737     -0.238083
  C       0.529747     -0.104080      1.414132
  C       0.893064      0.450129     -0.969218
  C      -1.649980     -0.987502     -2.550041
  C      -2.178540      1.424808     -2.407104
  C      -3.716631     -0.354012     -1.413249
  H      -0.205894      2.432316      0.876179
  H      -1.580595      3.228181      1.631386
  H      -1.440938      3.176512     -0.128047
  H      -4.281374      0.972348      0.761337
  H      -3.777238      2.221477     -0.396757
  H      -3.786844      2.565539      1.313772
  H      -2.388488     -0.349173      2.192707
  H      -2.951569      1.204348      2.795958
  H      -1.238351      0.875054      2.784483
  H      -0.600066     -0.859468     -2.783040
  H      -2.194307     -0.909335     -3.490353
  H      -1.823422     -1.979331     -2.146636
  H       0.551325      0.465618     -1.996149
  H       1.839503     -0.084004     -0.932192
  H       1.061255      1.475997     -0.651970
  H       0.011956     -0.733225      2.130089
  H       0.566363      0.916591      1.774534
  H       1.559584     -0.452558      1.346449
  H      -0.975799     -2.262690      0.113812
  H       0.767415     -2.217934      0.345235
  H       0.127290     -2.068507     -1.270819
  H      -1.167513      1.614183     -2.758245
  H      -2.505953      2.286082     -1.839108
  H      -2.830976      1.316731     -3.270286
  H      -3.800653     -1.015165     -0.552208
  H      -4.016000     -0.914956     -2.295162
  H      -4.400127      0.477467     -1.316713
>
41
Coordinates from ORCA-job tBu3C--Cl_0_1_bp86_xtb_6-31gpol_Int-SN1.scan Relaxed Surface Scan Step 8
  C      -1.515372      0.328231     -0.237771
  C      -0.101995     -0.256090      0.006799
  Cl     -3.171643     -2.588371      1.324342
  C      -2.222577      0.090570     -1.595297
  C      -2.128965      1.313016      0.788205
  C      -2.164024      0.705490      2.228377
  C      -3.587004      1.796803      0.572043
  C      -1.266474      2.622087      0.795371
  C      -0.062658     -1.801309     -0.228178
  C       0.533935     -0.095127      1.412603
  C       0.900675      0.446276     -0.972461
  C      -1.643171     -0.980949     -2.555873
  C      -2.186308      1.427486     -2.413136
  C      -3.706504     -0.364021     -1.406572
  H      -0.202790      2.435691      0.868743
  H      -1.569087      3.221031      1.650991
  H      -1.447925      3.194774     -0.110544
  H      -4.281907      0.985148      0.758919
  H      -3.774351      2.229445     -0.402979
  H      -3.781067      2.577248      1.306909
  H      -2.405272     -0.355234      2.174825
  H      -2.954702      1.199074      2.788254
  H      -1.245498      0.853466      2.778044
  H      -0.592910     -0.852742     -2.787054
  H      -2.186337     -0.899429     -3.496680
  H      -1.817957     -1.974428     -2.157033
  H       0.552184      0.475080     -1.996785
  H       1.839204     -0.102203     -0.945280
  H       1.086168      1.467425     -0.649317
  H       0.020346     -0.726335      2.129825
  H       0.568258      0.925502      1.773309
  H       1.564701     -0.440709      1.342794
  H      -0.985045     -2.252480      0.134892
  H       0.760196     -2.214076      0.350428
  H       0.106642     -2.073406     -1.260170
  H      -1.180841      1.613503     -2.781912
  H      -2.500089      2.290551     -1.840239
  H      -2.853979      1.320466     -3.264714
  H      -3.781032     -1.031680     -0.549336
  H      -4.008057     -0.921540     -2.290036
  H      -4.396750      0.460574     -1.300310
>
41
Coordinates from ORCA-job tBu3C--Cl_0_1_bp86_xtb_6-31gpol_Int-SN1.scan Relaxed Surface Scan Step 9
  C      -1.507121      0.342503     -0.245464
  C      -0.099125     -0.245632      0.009473
  Cl     -3.208051     -2.651657      1.361348
  C      -2.212509      0.093111     -1.599787
  C      -2.130689      1.319407      0.779411
  C      -2.180937      0.690235      2.210558
  C      -3.585339      1.809975      0.555418
  C      -1.265331      2.626846      0.809941
  C      -0.079539     -1.794547     -0.207138
  C       0.539458     -0.074582      1.412902
  C       0.910384      0.436614     -0.977773
  C      -1.625869     -0.971871     -2.563291
  C      -2.198621      1.429110     -2.420784
  C      -3.688468     -0.382434     -1.395148
  H      -0.199356      2.439353      0.800384
  H      -1.511754      3.178227      1.714083
  H      -1.503175      3.248437     -0.049936
  H      -4.286806      1.005458      0.749266
  H      -3.769212      2.232882     -0.424664
  H      -3.773575      2.598673      1.283101
  H      -2.425070     -0.369330      2.143052
  H      -2.975354      1.178709      2.769749
  H      -1.266100      0.827682      2.768733
  H      -0.572893     -0.844797     -2.783199
  H      -2.161806     -0.880167     -3.507422
  H      -1.805619     -1.968871     -2.175273
  H       0.526439      0.540403     -1.984412
  H       1.814362     -0.166578     -1.012473
  H       1.169965      1.428288     -0.615097
  H       0.036548     -0.710099      2.134070
  H       0.562506      0.946863      1.772625
  H       1.573559     -0.409247      1.337826
  H      -1.005755     -2.233584      0.161914
  H       0.739444     -2.209739      0.375340
  H       0.084189     -2.078824     -1.236586
  H      -1.218639      1.578861     -2.867509
  H      -2.430515      2.303561     -1.826601
  H      -2.933358      1.347501     -3.218117
  H      -3.748749     -1.050086     -0.536420
  H      -3.990114     -0.945730     -2.274982
  H      -4.387389      0.433884     -1.283120
>
41
Coordinates from ORCA-job tBu3C--Cl_0_1_bp86_xtb_6-31gpol_Int-SN1.scan Relaxed Surface Scan Step 10
  C      -1.501604      0.351756     -0.250233
  C      -0.096631     -0.241168      0.008257
  Cl     -3.246407     -2.720981      1.400206
  C      -2.208756      0.097447     -1.602144
  C      -2.128975      1.323983      0.776065
  C      -2.184510      0.685903      2.203253
  C      -3.583680      1.815679      0.551431
  C      -1.264858      2.631819      0.814007
  C      -0.086726     -1.791399     -0.200606
  C       0.544210     -0.069411      1.411182
  C       0.916049      0.432640     -0.981174
  C      -1.621234     -0.965485     -2.568209
  C      -2.203563      1.432801     -2.423845
  C      -3.680934     -0.387067     -1.390320
  H      -0.198755      2.445153      0.805378
  H      -1.513247      3.179570      1.719851
  H      -1.501617      3.256303     -0.044115
  H      -4.286423      1.012710      0.747271
  H      -3.767477      2.237482     -0.429140
  H      -3.771093      2.605641      1.278005
  H      -2.439462     -0.370723      2.131647
  H      -2.973779      1.179024      2.765746
  H      -1.268747      0.810735      2.762733
  H      -0.568311     -0.837591     -2.787848
  H      -2.157011     -0.871820     -3.512281
  H      -1.801188     -1.963759     -2.183453
  H       0.532257      0.535038     -1.988051
  H       1.817349     -0.174697     -1.014151
  H       1.179796      1.424402     -0.621700
  H       0.043717     -0.705571      2.133522
  H       0.567633      0.951957      1.770915
  H       1.578378     -0.403644      1.334532
  H      -1.009709     -2.226673      0.180377
  H       0.736939     -2.206841      0.375156
  H       0.065119     -2.082653     -1.229834
  H      -1.225407      1.586411     -2.873302
  H      -2.437095      2.306473     -1.829089
  H      -2.940422      1.347959     -3.218915
  H      -3.734037     -1.062651     -0.537491
  H      -3.986101     -0.944161     -2.272944
  H      -4.383669      0.424214     -1.266694
>
41
Coordinates from ORCA-job tBu3C--Cl_0_1_bp86_xtb_6-31gpol_Int-SN1.scan Relaxed Surface Scan Step 11
  C      -1.494559      0.364645     -0.257144
  C      -0.094291     -0.233908      0.005628
  Cl     -3.283794     -2.788006      1.433840
  C      -2.204126      0.102951     -1.604922
  C      -2.125943      1.329485      0.771684
  C      -2.177473      0.670395      2.190618
  C      -3.580526      1.822041      0.548155
  C      -1.263619      2.637729      0.820449
  C      -0.107723     -1.785347     -0.202550
  C       0.546986     -0.062178      1.408312
  C       0.924005      0.430539     -0.983825
  C      -1.616886     -0.959991     -2.571150
  C      -2.208862      1.434984     -2.431351
  C      -3.672351     -0.386931     -1.371005
  H      -0.197263      2.452271      0.804085
  H      -1.508352      3.176268      1.732757
  H      -1.505142      3.270231     -0.030574
  H      -4.285509      1.019239      0.735263
  H      -3.762081      2.250366     -0.430054
  H      -3.767989      2.606602      1.280528
  H      -2.361982     -0.399542      2.102939
  H      -3.009263      1.103566      2.740465
  H      -1.282082      0.847091      2.770172
  H      -0.565444     -0.827654     -2.795449
  H      -2.158454     -0.869681     -3.512223
  H      -1.788207     -1.959094     -2.185235
  H       0.538391      0.542189     -1.989125
  H       1.818443     -0.186535     -1.021560
  H       1.199478      1.417987     -0.620913
  H       0.043360     -0.690597      2.134907
  H       0.576391      0.960533      1.764067
  H       1.578724     -0.403772      1.331554
  H      -1.064331     -2.199325      0.113641
  H       0.663936     -2.222963      0.425814
  H       0.104643     -2.075721     -1.222072
  H      -1.235233      1.586434     -2.891535
  H      -2.434620      2.310902     -1.836732
  H      -2.954115      1.348093     -3.218298
  H      -3.725386     -1.003720     -0.474769
  H      -3.966286     -1.006465     -2.214576
  H      -4.382448      0.425697     -1.305821
>
41
Coordinates from ORCA-job tBu3C--Cl_0_1_bp86_xtb_6-31gpol_Int-SN1.scan Relaxed Surface Scan Step 12
  C      -1.491727      0.369771     -0.259889
  C      -0.093066     -0.231411      0.004709
  Cl     -3.324751     -2.862330      1.473187
  C      -2.202617      0.105053     -1.606240
  C      -2.124882      1.331920      0.770215
  C      -2.179428      0.672319      2.188879
  C      -3.579337      1.825300      0.546087
  C      -1.263047      2.640377      0.822759
  C      -0.105861     -1.783289     -0.200585
  C       0.548493     -0.058652      1.407390
  C       0.926927      0.429907     -0.985171
  C      -1.614769     -0.957641     -2.572710
  C      -2.210377      1.436230     -2.434128
  C      -3.670257     -0.387198     -1.373324
  H      -0.196695      2.455187      0.801766
  H      -1.504929      3.174849      1.738239
  H      -1.507379      3.276806     -0.024551
  H      -4.285360      1.023668      0.734635
  H      -3.760434      2.252692     -0.432597
  H      -3.766317      2.611039      1.277361
  H      -2.377372     -0.395462      2.106589
  H      -3.003882      1.116376      2.741342
  H      -1.280483      0.838788      2.765815
  H      -0.563081     -0.825408     -2.795855
  H      -2.155101     -0.866445     -3.514438
  H      -1.787211     -1.957201     -2.188305
  H       0.539851      0.545176     -1.989536
  H       1.818717     -0.190862     -1.025531
  H       1.207406      1.415546     -0.621146
  H       0.046671     -0.688114      2.134432
  H       0.576538      0.964136      1.762975
  H       1.580819     -0.398501      1.330446
  H      -1.055483     -2.204075      0.126886
  H       0.675282     -2.217067      0.418896
  H       0.095889     -2.074917     -1.221827
  H      -1.239056      1.586131     -2.899698
  H      -2.431466      2.312883     -1.838794
  H      -2.959859      1.349851     -3.217133
  H      -3.725957     -1.015645     -0.485604
  H      -3.966430     -0.995711     -2.224275
  H      -4.379960      0.424731     -1.297279
>
41
Coordinates from ORCA-job tBu3C--Cl_0_1_bp86_xtb_6-31gpol_Int-SN1.scan Relaxed Surface Scan Step 13
  C      -1.489437      0.373602     -0.261888
  C      -0.091766     -0.229161      0.004186
  Cl     -3.366327     -2.938305      1.512528
  C      -2.201300      0.106419     -1.607210
  C      -2.124046      1.334174      0.768709
  C      -2.181773      0.675340      2.187685
  C      -3.578028      1.828846      0.543258
  C      -1.262003      2.642532      0.824084
  C      -0.102973     -1.781309     -0.199589
  C       0.550024     -0.055974      1.406886
  C       0.929571      0.430554     -0.985613
  C      -1.613114     -0.955922     -2.574152
  C      -2.211825      1.437172     -2.436007
  C      -3.668624     -0.387627     -1.375694
  H      -0.195725      2.457351      0.798047
  H      -1.500340      3.173507      1.742515
  H      -1.509245      3.282400     -0.019825
  H      -4.285416      1.028683      0.733362
  H      -3.758244      2.254798     -0.436225
  H      -3.764248      2.616193      1.273011
  H      -2.393368     -0.389963      2.109661
  H      -2.998706      1.130425      2.742564
  H      -1.279404      0.831292      2.761962
  H      -0.561148     -0.824174     -2.796162
  H      -2.152345     -0.863365     -3.516392
  H      -1.786906     -1.955950     -2.191361
  H       0.540995      0.550862     -1.988820
  H       1.818859     -0.193532     -1.029673
  H       1.214672      1.414001     -0.619162
  H       0.050419     -0.687339      2.133906
  H       0.576039      0.966633      1.763130
  H       1.583114     -0.393370      1.329210
  H      -1.045633     -2.207620      0.140033
  H       0.687980     -2.211623      0.409981
  H       0.087060     -2.073608     -1.222760
  H      -1.242793      1.585249     -2.906963
  H      -2.427652      2.314530     -1.839695
  H      -2.965736      1.352054     -3.214878
  H      -3.725300     -1.028195     -0.496974
  H      -3.967661     -0.984287     -2.234149
  H      -4.377632      0.423519     -1.287533
>
41
Coordinates from ORCA-job tBu3C--Cl_0_1_bp86_xtb_6-31gpol_Int-SN1.scan Relaxed Surface Scan Step 14
  C      -1.488226      0.376188     -0.263263
  C      -0.091254     -0.227463      0.003781
  Cl     -3.409384     -3.014938      1.553167
  C      -2.199868      0.108168     -1.608366
  C      -2.123508      1.335887      0.767612
  C      -2.182136      0.678704      2.187433
  C      -3.577703      1.830815      0.542378
  C      -1.261895      2.644583      0.823881
  C      -0.100224     -1.780006     -0.197902
  C       0.550989     -0.052812      1.406383
  C       0.930527      0.430273     -0.986997
  C      -1.610433     -0.953444     -2.575698
  C      -2.211352      1.438900     -2.437347
  C      -3.667411     -0.386949     -1.379941
  H      -0.195651      2.460003      0.792310
  H      -1.496365      3.172774      1.744908
  H      -1.512999      3.286939     -0.017023
  H      -4.285638      1.031776      0.735553
  H      -3.758659      2.254463     -0.437960
  H      -3.762770      2.620179      1.270252
  H      -2.407385     -0.383799      2.113694
  H      -2.990701      1.144763      2.745608
  H      -1.275543      0.824123      2.757638
  H      -0.557872     -0.822104     -2.795241
  H      -2.147410     -0.859039     -3.519044
  H      -1.786059     -1.954091     -2.195142
  H       0.539971      0.554102     -1.989064
  H       1.817658     -0.196631     -1.034374
  H       1.219761      1.412088     -0.619368
  H       0.053407     -0.685319      2.133928
  H       0.575129      0.969886      1.762466
  H       1.584769     -0.387993      1.328291
  H      -1.035877     -2.211247      0.153753
  H       0.700232     -2.206303      0.402170
  H       0.078270     -2.073523     -1.222683
  H      -1.243947      1.584831     -2.912349
  H      -2.422279      2.316783     -1.840022
  H      -2.968683      1.355742     -3.213103
  H      -3.725371     -1.038924     -0.510081
  H      -3.968462     -0.972009     -2.245755
  H      -4.375631      0.423432     -1.280490
>
41
Coordinates from ORCA-job tBu3C--Cl_0_1_bp86_xtb_6-31gpol_Int-SN1.scan Relaxed Surface Scan Step 15
  C      -1.486669      0.378408     -0.264668
  C      -0.089952     -0.225656      0.003071
  Cl     -3.451915     -3.092427      1.593049
  C      -2.198944      0.109719     -1.609366
  C      -2.122562      1.337470      0.766412
  C      -2.183834      0.682431      2.187239
  C      -3.576576      1.833005      0.540560
  C      -1.261101      2.646307      0.823999
  C      -0.095572     -1.778571     -0.196653
  C       0.552432     -0.050333      1.405637
  C       0.932611      0.431429     -0.987490
  C      -1.610342     -0.951858     -2.577432
  C      -2.211182      1.440222     -2.438862
  C      -3.666827     -0.385838     -1.383461
  H      -0.194905      2.461963      0.789020
  H      -1.493216      3.172302      1.746883
  H      -1.514355      3.290739     -0.014679
  H      -4.285249      1.035039      0.735757
  H      -3.757309      2.254977     -0.440520
  H      -3.760999      2.623949      1.266882
  H      -2.422302     -0.377432      2.117043
  H      -2.984855      1.159400      2.747233
  H      -1.274172      0.817581      2.754766
  H      -0.557398     -0.821993     -2.795807
  H      -2.146094     -0.855362     -3.521270
  H      -1.788467     -1.952786     -2.198662
  H       0.541157      0.558579     -1.988786
  H       1.818194     -0.197483     -1.037273
  H       1.224728      1.411773     -0.618193
  H       0.056967     -0.684670      2.133102
  H       0.574411      0.972246      1.762139