
                                 *****************
                                 * O   R   C   A *
                                 *****************

                                            #,                                       
                                            ###                                      
                                            ####                                     
                                            #####                                    
                                            ######                                   
                                           ########,                                 
                                     ,,################,,,,,                         
                               ,,#################################,,                 
                          ,,##########################################,,             
                       ,#########################################, ''#####,          
                    ,#############################################,,   '####,        
                  ,##################################################,,,,####,       
                ,###########''''           ''''###############################       
              ,#####''   ,,,,##########,,,,          '''####'''          '####       
            ,##' ,,,,###########################,,,                        '##       
           ' ,,###''''                  '''############,,,                           
         ,,##''                                '''############,,,,        ,,,,,,###''
      ,#''                                            '''#######################'''  
     '                                                          ''''####''''         
             ,#######,   #######,   ,#######,      ##                                
            ,#'     '#,  ##    ##  ,#'     '#,    #''#        ######   ,####,        
            ##       ##  ##   ,#'  ##            #'  '#       #        #'  '#        
            ##       ##  #######   ##           ,######,      #####,   #    #        
            '#,     ,#'  ##    ##  '#,     ,#' ,#      #,         ##   #,  ,#        
             '#######'   ##     ##  '#######'  #'      '#     #####' # '####'        



                  #######################################################
                  #                        -***-                        #
                  #          Department of theory and spectroscopy      #
                  #    Directorship and core code : Frank Neese         #
                  #        Max Planck Institute fuer Kohlenforschung    #
                  #                Kaiser Wilhelm Platz 1               #
                  #                 D-45470 Muelheim/Ruhr               #
                  #                      Germany                        #
                  #                                                     #
                  #                  All rights reserved                #
                  #                        -***-                        #
                  #######################################################


                         Program Version 5.0.2 -  RELEASE  -


 With contributions from (in alphabetic order):
   Daniel Aravena         : Magnetic Suceptibility
   Michael Atanasov       : Ab Initio Ligand Field Theory (pilot matlab implementation)
   Alexander A. Auer      : GIAO ZORA, VPT2 properties, NMR spectrum
   Ute Becker             : Parallelization
   Giovanni Bistoni       : ED, misc. LED, open-shell LED, HFLD
   Martin Brehm           : Molecular dynamics
   Dmytro Bykov           : SCF Hessian
   Vijay G. Chilkuri      : MRCI spin determinant printing, contributions to CSF-ICE
   Dipayan Datta          : RHF DLPNO-CCSD density
   Achintya Kumar Dutta   : EOM-CC, STEOM-CC
   Dmitry Ganyushin       : Spin-Orbit,Spin-Spin,Magnetic field MRCI
   Miquel Garcia          : C-PCM and meta-GGA Hessian, CC/C-PCM, Gaussian charge scheme
   Yang Guo               : DLPNO-NEVPT2, F12-NEVPT2, CIM, IAO-localization
   Andreas Hansen         : Spin unrestricted coupled pair/coupled cluster methods
   Benjamin Helmich-Paris : MC-RPA, TRAH-SCF, COSX integrals
   Lee Huntington         : MR-EOM, pCC
   Robert Izsak           : Overlap fitted RIJCOSX, COSX-SCS-MP3, EOM
   Marcus Kettner         : VPT2
   Christian Kollmar      : KDIIS, OOCD, Brueckner-CCSD(T), CCSD density, CASPT2, CASPT2-K
   Simone Kossmann        : Meta GGA functionals, TD-DFT gradient, OOMP2, MP2 Hessian
   Martin Krupicka        : Initial AUTO-CI
   Lucas Lang             : DCDCAS
   Marvin Lechner         : AUTO-CI (C++ implementation), FIC-MRCC
   Dagmar Lenk            : GEPOL surface, SMD
   Dimitrios Liakos       : Extrapolation schemes; Compound Job, initial MDCI parallelization
   Dimitrios Manganas     : Further ROCIS development; embedding schemes
   Dimitrios Pantazis     : SARC Basis sets
   Anastasios Papadopoulos: AUTO-CI, single reference methods and gradients
   Taras Petrenko         : DFT Hessian,TD-DFT gradient, ASA, ECA, R-Raman, ABS, FL, XAS/XES, NRVS
   Peter Pinski           : DLPNO-MP2, DLPNO-MP2 Gradient
   Christoph Reimann      : Effective Core Potentials
   Marius Retegan         : Local ZFS, SOC
   Christoph Riplinger    : Optimizer, TS searches, QM/MM, DLPNO-CCSD(T), (RO)-DLPNO pert. Triples
   Tobias Risthaus        : Range-separated hybrids, TD-DFT gradient, RPA, STAB
   Michael Roemelt        : Original ROCIS implementation
   Masaaki Saitow         : Open-shell DLPNO-CCSD energy and density
   Barbara Sandhoefer     : DKH picture change effects
   Avijit Sen             : IP-ROCIS
   Kantharuban Sivalingam : CASSCF convergence, NEVPT2, FIC-MRCI
   Bernardo de Souza      : ESD, SOC TD-DFT
   Georgi Stoychev        : AutoAux, RI-MP2 NMR, DLPNO-MP2 response
   Willem Van den Heuvel  : Paramagnetic NMR
   Boris Wezisla          : Elementary symmetry handling
   Frank Wennmohs         : Technical directorship


 We gratefully acknowledge several colleagues who have allowed us to
 interface, adapt or use parts of their codes:
   Stefan Grimme, W. Hujo, H. Kruse, P. Pracht,  : VdW corrections, initial TS optimization,
                  C. Bannwarth, S. Ehlert          DFT functionals, gCP, sTDA/sTD-DF
   Ed Valeev, F. Pavosevic, A. Kumar             : LibInt (2-el integral package), F12 methods
   Garnet Chan, S. Sharma, J. Yang, R. Olivares  : DMRG
   Ulf Ekstrom                                   : XCFun DFT Library
   Mihaly Kallay                                 : mrcc  (arbitrary order and MRCC methods)
   Jiri Pittner, Ondrej Demel                    : Mk-CCSD
   Frank Weinhold                                : gennbo (NPA and NBO analysis)
   Christopher J. Cramer and Donald G. Truhlar   : smd solvation model
   Lars Goerigk                                  : TD-DFT with DH, B97 family of functionals
   V. Asgeirsson, H. Jonsson                     : NEB implementation
   FAccTs GmbH                                   : IRC, NEB, NEB-TS, DLPNO-Multilevel, CI-OPT
                                                   MM, QMMM, 2- and 3-layer-ONIOM, Crystal-QMMM,
                                                   LR-CPCM, SF, NACMEs, symmetry and pop. for TD-DFT,
                                                   nearIR, NL-DFT gradient (VV10), updates on ESD,
                                                   ML-optimized integration grids
   S Lehtola, MJT Oliveira, MAL Marques          : LibXC Library
   Liviu Ungur et al                             : ANISO software


 Your calculation uses the libint2 library for the computation of 2-el integrals
 For citations please refer to: http://libint.valeyev.net

 Your ORCA version has been built with support for libXC version: 5.1.0
 For citations please refer to: https://tddft.org/programs/libxc/

 This ORCA versions uses:
   CBLAS   interface :  Fast vector & matrix operations
   LAPACKE interface :  Fast linear algebra routines
   SCALAPACK package :  Parallel linear algebra routines
   Shared memory     :  Shared parallel matrices
   BLAS/LAPACK       :  OpenBLAS 0.3.15  USE64BITINT DYNAMIC_ARCH NO_AFFINITY SkylakeX SINGLE_THREADED
        Core in use  :  SkylakeX
   Copyright (c) 2011-2014, The OpenBLAS Project




***************************************
The coordinates will be read from file: tBu3CCl.xyz
***************************************


================================================================================

----- Orbital basis set information -----
Your calculation utilizes the basis: 6-31G*
   H-He, Li-Ne : W. J. Hehre, R. Ditchfield and J.A. Pople, J. Chem. Phys. 56, 2257 (1972).
                 Note: He and Ne are unpublished basis sets taken from the Gaussian program.
                 Note: Li and B from J. D. Dill and J. A. Pople, J. Chem. Phys. 62, 2921 (1975).
   Na - Ar     : M. M. Francl, W. J. Pietro, W. J. Hehre, J. S. Binkley, M. S. Gordon, 
                 D. J. DeFrees and J. A. Pople, J. Chem. Phys. 77, 3654 (1982).
   K - Zn      : V. A. Rassolov, J. A. Pople, M. A. Ratner, and T. L. Windus, J. Chem. Phys. 109, 1223 (1998).

----- AuxJ basis set information -----
Your calculation utilizes the auxiliary basis: def2/J
   F. Weigend, Phys. Chem. Chem. Phys. 8, 1057 (2006).

================================================================================
                                        WARNINGS
                       Please study these warnings very carefully!
================================================================================


WARNING: Geometry Optimization
  ===> : Switching off AutoStart
         For restart on a previous wavefunction, please use MOREAD

INFO   : the flag for use of the SHARK integral package has been found!

================================================================================
                                       INPUT FILE
================================================================================
NAME = tBu3CCl_0_1_bp86_6-31gpol.opt.inp
|  1> !rks bp86 6-31g* tightscf opt
|  2> !normalprint
|  3> !pal8
|  4> 
|  5> %scf
|  6>   maxiter 500
|  7> end
|  8> 
|  9> *xyzfile 0 1 tBu3CCl.xyz
| 10> 
| 11>                          ****END OF INPUT****
================================================================================

                       *****************************
                       * Geometry Optimization Run *
                       *****************************

Geometry optimization settings:
Update method            Update   .... BFGS
Choice of coordinates    CoordSys .... Z-matrix Internals
Initial Hessian          InHess   .... Almoef's Model

Convergence Tolerances:
Energy Change            TolE     ....  5.0000e-06 Eh
Max. Gradient            TolMAXG  ....  3.0000e-04 Eh/bohr
RMS Gradient             TolRMSG  ....  1.0000e-04 Eh/bohr
Max. Displacement        TolMAXD  ....  4.0000e-03 bohr
RMS Displacement         TolRMSD  ....  2.0000e-03 bohr
Strict Convergence                ....  False
------------------------------------------------------------------------------
                        ORCA OPTIMIZATION COORDINATE SETUP
------------------------------------------------------------------------------

The optimization will be done in new redundant internal coordinates
Making redundant internal coordinates   ...  (new redundants) done
Evaluating the initial hessian          ...  (Almloef) done
Evaluating the coordinates              ...  done
Calculating the B-matrix                .... done
Calculating the G-matrix                .... done
Diagonalizing the G-matrix              .... done
Small eigenvalue found = 1.218e-02
Small eigenvalue found = 1.218e-02
The first mode is                       ....  109
The number of degrees of freedom        ....  117

    -----------------------------------------------------------------
                    Redundant Internal Coordinates


    -----------------------------------------------------------------
         Definition                    Initial Value    Approx d2E/dq
    -----------------------------------------------------------------
      1. B(C   1,C   0)                  1.6813         0.214298   
      2. B(Cl  2,C   0)                  1.8697         0.240674   
      3. B(C   3,C   0)                  1.6813         0.214291   
      4. B(C   4,C   0)                  1.6813         0.214279   
      5. B(C   5,C   4)                  1.5671         0.325950   
      6. B(C   6,C   4)                  1.5519         0.344739   
      7. B(C   7,C   4)                  1.5461         0.352119   
      8. B(C   8,C   1)                  1.5671         0.325956   
      9. B(C   9,C   1)                  1.5519         0.344740   
     10. B(C  10,C   1)                  1.5461         0.352119   
     11. B(C  11,C   3)                  1.5519         0.344736   
     12. B(C  12,C   3)                  1.5461         0.352124   
     13. B(C  13,C   3)                  1.5671         0.325955   
     14. B(H  14,C   7)                  1.0909         0.358931   
     15. B(H  15,C   7)                  1.0979         0.349828   
     16. B(H  16,C   7)                  1.0889         0.361538   
     17. B(H  17,C   6)                  1.0940         0.354858   
     18. B(H  18,C   6)                  1.0902         0.359885   
     19. B(H  19,C   6)                  1.0985         0.349086   
     20. B(H  20,C   5)                  1.0934         0.355587   
     21. B(H  21,C   5)                  1.0990         0.348334   
     22. B(H  22,C   5)                  1.0855         0.366135   
     23. B(H  23,C  11)                  1.0902         0.359886   
     24. B(H  24,C  11)                  1.0985         0.349084   
     25. B(H  25,C  11)                  1.0940         0.354858   
     26. B(H  26,C  10)                  1.0909         0.358935   
     27. B(H  27,C  10)                  1.0979         0.349828   
     28. B(H  28,C  10)                  1.0889         0.361535   
     29. B(H  29,C   9)                  1.0940         0.354860   
     30. B(H  30,C   9)                  1.0902         0.359881   
     31. B(H  31,C   9)                  1.0985         0.349086   
     32. B(H  32,C   8)                  1.0934         0.355580   
     33. B(H  33,C   8)                  1.0990         0.348335   
     34. B(H  34,C   8)                  1.0855         0.366143   
     35. B(H  35,C  12)                  1.0889         0.361532   
     36. B(H  36,C  12)                  1.0909         0.358933   
     37. B(H  37,C  12)                  1.0979         0.349829   
     38. B(H  38,C  13)                  1.0934         0.355572   
     39. B(H  39,C  13)                  1.0990         0.348334   
     40. B(H  40,C  13)                  1.0855         0.366153   
     41. A(Cl  2,C   0,C   4)          104.3601         0.320637   
     42. A(C   1,C   0,C   3)          114.0627         0.302327   
     43. A(C   1,C   0,C   4)          114.0622         0.302325   
     44. A(C   1,C   0,Cl  2)          104.3604         0.320642   
     45. A(C   3,C   0,C   4)          114.0632         0.302323   
     46. A(Cl  2,C   0,C   3)          104.3590         0.320640   
     47. A(C   0,C   1,C   8)          115.1662         0.323572   
     48. A(C   8,C   1,C   9)          101.6878         0.350221   
     49. A(C   0,C   1,C  10)          113.8256         0.327707   
     50. A(C   0,C   1,C   9)          113.5534         0.326565   
     51. A(C   8,C   1,C  10)          105.6074         0.351476   
     52. A(C   9,C   1,C  10)          105.8059         0.354826   
     53. A(C  11,C   3,C  12)          105.8059         0.354826   
     54. A(C   0,C   3,C  11)          113.5552         0.326563   
     55. A(C   0,C   3,C  13)          115.1658         0.323569   
     56. A(C   0,C   3,C  12)          113.8253         0.327705   
     57. A(C  12,C   3,C  13)          105.6084         0.351477   
     58. A(C  11,C   3,C  13)          101.6854         0.350220   
     59. A(C   0,C   4,C   5)          115.1666         0.323566   
     60. A(C   0,C   4,C   7)          113.8262         0.327702   
     61. A(C   6,C   4,C   7)          105.8067         0.354826   
     62. A(C   5,C   4,C   7)          105.6049         0.351475   
     63. A(C   0,C   4,C   6)          113.5532         0.326560   
     64. A(C   5,C   4,C   6)          101.6884         0.350220   
     65. A(H  20,C   5,H  21)          105.6055         0.288756   
     66. A(H  21,C   5,H  22)          104.0456         0.290082   
     67. A(H  20,C   5,H  22)          108.4029         0.291023   
     68. A(C   4,C   5,H  22)          114.7925         0.318026   
     69. A(C   4,C   5,H  21)          110.4253         0.315457   
     70. A(C   4,C   5,H  20)          112.8269         0.316516   
     71. A(C   4,C   6,H  17)          111.7905         0.319313   
     72. A(H  18,C   6,H  19)          104.2457         0.289398   
     73. A(H  17,C   6,H  19)          105.9121         0.288761   
     74. A(C   4,C   6,H  19)          111.4197         0.318460   
     75. A(H  17,C   6,H  18)          110.4631         0.290143   
     76. A(C   4,C   6,H  18)          112.5585         0.320048   
     77. A(C   4,C   7,H  16)          113.1495         0.321399   
     78. A(H  14,C   7,H  15)          105.4957         0.289374   
     79. A(C   4,C   7,H  15)          110.7941         0.319673   
     80. A(H  15,C   7,H  16)          106.1565         0.289703   
     81. A(C   4,C   7,H  14)          112.5730         0.321019   
     82. A(H  14,C   7,H  16)          108.1911         0.290873   
     83. A(C   1,C   8,H  33)          110.4251         0.315458   
     84. A(C   1,C   8,H  32)          112.8248         0.316516   
     85. A(H  33,C   8,H  34)          104.0476         0.290084   
     86. A(H  32,C   8,H  34)          108.4017         0.291023   
     87. A(C   1,C   8,H  34)          114.7943         0.318028   
     88. A(H  32,C   8,H  33)          105.6056         0.288756   
     89. A(H  30,C   9,H  31)          104.2457         0.289398   
     90. A(C   1,C   9,H  31)          111.4198         0.318460   
     91. A(H  29,C   9,H  30)          110.4637         0.290143   
     92. A(C   1,C   9,H  30)          112.5570         0.320047   
     93. A(C   1,C   9,H  29)          111.7911         0.319314   
     94. A(H  29,C   9,H  31)          105.9123         0.288761   
     95. A(H  27,C  10,H  28)          106.1567         0.289702   
     96. A(H  26,C  10,H  28)          108.1904         0.290873   
     97. A(C   1,C  10,H  28)          113.1485         0.321399   
     98. A(H  26,C  10,H  27)          105.4961         0.289375   
     99. A(C   1,C  10,H  27)          110.7940         0.319674   
    100. A(C   1,C  10,H  26)          112.5742         0.321019   
    101. A(H  24,C  11,H  25)          105.9117         0.288761   
    102. A(H  23,C  11,H  25)          110.4630         0.290143   
    103. A(C   3,C  11,H  25)          111.7904         0.319313   
    104. A(H  23,C  11,H  24)          104.2464         0.289398   
    105. A(C   3,C  11,H  24)          111.4187         0.318459   
    106. A(C   3,C  11,H  23)          112.5592         0.320047   
    107. A(H  36,C  12,H  37)          105.4955         0.289374   
    108. A(H  35,C  12,H  37)          106.1565         0.289702   
    109. A(C   3,C  12,H  37)          110.7947         0.319674   
    110. A(H  35,C  12,H  36)          108.1919         0.290872   
    111. A(C   3,C  12,H  36)          112.5735         0.321020   
    112. A(C   3,C  12,H  35)          113.1478         0.321399   
    113. A(H  39,C  13,H  40)          104.0499         0.290085   
    114. A(H  38,C  13,H  40)          108.4001         0.291023   
    115. A(C   3,C  13,H  40)          114.7965         0.318030   
    116. A(H  38,C  13,H  39)          105.6055         0.288754   
    117. A(C   3,C  13,H  39)          110.4243         0.315458   
    118. A(C   3,C  13,H  38)          112.8229         0.316514   
    119. D(C   9,C   1,C   0,C   3)    173.9592         0.004428   
    120. D(C  10,C   1,C   0,C   3)     52.8071         0.004428   
    121. D(C  10,C   1,C   0,C   4)    -80.6996         0.004428   
    122. D(C   8,C   1,C   0,C   4)    157.1307         0.004428   
    123. D(C   9,C   1,C   0,Cl  2)    -72.7947         0.004428   
    124. D(C   8,C   1,C   0,C   3)    -69.3626         0.004428   
    125. D(C   8,C   1,C   0,Cl  2)     43.8836         0.004428   
    126. D(C   9,C   1,C   0,C   4)     40.4525         0.004428   
    127. D(C  10,C   1,C   0,Cl  2)    166.0532         0.004428   
    128. D(C  12,C   3,C   0,C   4)     52.8008         0.004428   
    129. D(C  12,C   3,C   0,Cl  2)    166.0476         0.004428   
    130. D(C  11,C   3,C   0,C   1)     40.4478         0.004428   
    131. D(C  11,C   3,C   0,C   4)    173.9540         0.004428   
    132. D(C  11,C   3,C   0,Cl  2)    -72.7992         0.004428   
    133. D(C  13,C   3,C   0,Cl  2)     43.8771         0.004428   
    134. D(C  13,C   3,C   0,C   4)    -69.3698         0.004428   
    135. D(C  13,C   3,C   0,C   1)    157.1240         0.004428   
    136. D(C  12,C   3,C   0,C   1)    -80.7054         0.004428   
    137. D(C   5,C   4,C   0,C   3)    157.1381         0.004428   
    138. D(C   7,C   4,C   0,C   1)     52.8118         0.004428   
    139. D(C   7,C   4,C   0,Cl  2)    166.0592         0.004428   
    140. D(C   6,C   4,C   0,Cl  2)    -72.7873         0.004428   
    141. D(C   6,C   4,C   0,C   1)    173.9653         0.004428   
    142. D(C   6,C   4,C   0,C   3)     40.4589         0.004428   
    143. D(C   7,C   4,C   0,C   3)    -80.6946         0.004428   
    144. D(C   5,C   4,C   0,C   1)    -69.3554         0.004428   
    145. D(C   5,C   4,C   0,Cl  2)     43.8919         0.004428   
    146. D(H  20,C   5,C   4,C   7)    175.3146         0.008674   
    147. D(H  20,C   5,C   4,C   6)     65.0358         0.008674   
    148. D(H  21,C   5,C   4,C   0)   -176.1160         0.008674   
    149. D(H  20,C   5,C   4,C   0)    -58.1983         0.008674   
    150. D(H  22,C   5,C   4,C   7)    -59.8151         0.008674   
    151. D(H  22,C   5,C   4,C   6)   -170.0938         0.008674   
    152. D(H  22,C   5,C   4,C   0)     66.6720         0.008674   
    153. D(H  21,C   5,C   4,C   7)     57.3969         0.008674   
    154. D(H  21,C   5,C   4,C   6)    -52.8819         0.008674   
    155. D(H  19,C   6,C   4,C   7)    -63.1374         0.009599   
    156. D(H  19,C   6,C   4,C   5)     46.9871         0.009599   
    157. D(H  19,C   6,C   4,C   0)    171.3134         0.009599   
    158. D(H  18,C   6,C   4,C   7)     53.5550         0.009599   
    159. D(H  18,C   6,C   4,C   5)    163.6795         0.009599   
    160. D(H  18,C   6,C   4,C   0)    -71.9942         0.009599   
    161. D(H  17,C   6,C   4,C   7)    178.5686         0.009599   
    162. D(H  17,C   6,C   4,C   5)    -71.3069         0.009599   
    163. D(H  17,C   6,C   4,C   0)     53.0194         0.009599   
    164. D(H  16,C   7,C   4,C   6)    -72.7890         0.009980   
    165. D(H  16,C   7,C   4,C   5)    179.8929         0.009980   
    166. D(H  16,C   7,C   4,C   0)     52.5921         0.009980   
    167. D(H  15,C   7,C   4,C   6)     46.2941         0.009980   
    168. D(H  15,C   7,C   4,C   5)    -61.0240         0.009980   
    169. D(H  15,C   7,C   4,C   0)    171.6752         0.009980   
    170. D(H  14,C   7,C   4,C   6)    164.1568         0.009980   
    171. D(H  14,C   7,C   4,C   5)     56.8387         0.009980   
    172. D(H  14,C   7,C   4,C   0)    -70.4621         0.009980   
    173. D(H  34,C   8,C   1,C   9)   -170.1234         0.008674   
    174. D(H  34,C   8,C   1,C   0)     66.6429         0.008674   
    175. D(H  33,C   8,C   1,C  10)     57.3705         0.008674   
    176. D(H  33,C   8,C   1,C   9)    -52.9079         0.008674   
    177. D(H  33,C   8,C   1,C   0)   -176.1416         0.008674   
    178. D(H  32,C   8,C   1,C  10)    175.2867         0.008674   
    179. D(H  32,C   8,C   1,C   9)     65.0083         0.008674   
    180. D(H  34,C   8,C   1,C  10)    -59.8450         0.008674   
    181. D(H  32,C   8,C   1,C   0)    -58.2254         0.008674   
    182. D(H  31,C   9,C   1,C  10)    -63.1547         0.009599   
    183. D(H  31,C   9,C   1,C   0)    171.2973         0.009599   
    184. D(H  30,C   9,C   1,C  10)     53.5368         0.009599   
    185. D(H  30,C   9,C   1,C   8)    163.6634         0.009599   
    186. D(H  30,C   9,C   1,C   0)    -72.0112         0.009599   
    187. D(H  29,C   9,C   1,C  10)    178.5506         0.009599   
    188. D(H  31,C   9,C   1,C   8)     46.9720         0.009599   
    189. D(H  29,C   9,C   1,C   8)    -71.3227         0.009599   
    190. D(H  29,C   9,C   1,C   0)     53.0026         0.009599   
    191. D(H  28,C  10,C   1,C   9)    -72.7876         0.009980   
    192. D(H  28,C  10,C   1,C   8)    179.8943         0.009980   
    193. D(H  28,C  10,C   1,C   0)     52.5927         0.009980   
    194. D(H  27,C  10,C   1,C   9)     46.2950         0.009980   
    195. D(H  27,C  10,C   1,C   8)    -61.0231         0.009980   
    196. D(H  27,C  10,C   1,C   0)    171.6753         0.009980   
    197. D(H  26,C  10,C   1,C   9)    164.1589         0.009980   
    198. D(H  26,C  10,C   1,C   8)     56.8408         0.009980   
    199. D(H  26,C  10,C   1,C   0)    -70.4608         0.009980   
    200. D(H  25,C  11,C   3,C  13)    -71.3093         0.009599   
    201. D(H  25,C  11,C   3,C  12)    178.5639         0.009599   
    202. D(H  25,C  11,C   3,C   0)     53.0151         0.009599   
    203. D(H  24,C  11,C   3,C  13)     46.9835         0.009599   
    204. D(H  24,C  11,C   3,C  12)    -63.1433         0.009599   
    205. D(H  24,C  11,C   3,C   0)    171.3079         0.009599   
    206. D(H  23,C  11,C   3,C  13)    163.6766         0.009599   
    207. D(H  23,C  11,C   3,C  12)     53.5498         0.009599   
    208. D(H  23,C  11,C   3,C   0)    -71.9990         0.009599   
    209. D(H  37,C  12,C   3,C  13)    -61.0298         0.009980   
    210. D(H  37,C  12,C   3,C  11)     46.2860         0.009980   
    211. D(H  37,C  12,C   3,C   0)    171.6685         0.009980   
    212. D(H  36,C  12,C   3,C  13)     56.8335         0.009980   
    213. D(H  36,C  12,C   3,C  11)    164.1493         0.009980   
    214. D(H  36,C  12,C   3,C   0)    -70.4683         0.009980   
    215. D(H  35,C  12,C   3,C  13)    179.8878         0.009980   
    216. D(H  35,C  12,C   3,C  11)    -72.7964         0.009980   
    217. D(H  35,C  12,C   3,C   0)     52.5860         0.009980   
    218. D(H  40,C  13,C   3,C  12)    -59.8741         0.008674   
    219. D(H  40,C  13,C   3,C   0)     66.6140         0.008674   
    220. D(H  39,C  13,C   3,C  12)     57.3453         0.008674   
    221. D(H  39,C  13,C   3,C  11)    -52.9325         0.008674   
    222. D(H  39,C  13,C   3,C   0)   -176.1666         0.008674   
    223. D(H  38,C  13,C   3,C  12)    175.2597         0.008674   
    224. D(H  40,C  13,C   3,C  11)   -170.1518         0.008674   
    225. D(H  38,C  13,C   3,C  11)     64.9819         0.008674   
    226. D(H  38,C  13,C   3,C   0)    -58.2522         0.008674   
    -----------------------------------------------------------------

Number of atoms                         .... 41
Number of degrees of freedom            .... 226

         *************************************************************
         *                GEOMETRY OPTIMIZATION CYCLE   1            *
         *************************************************************
---------------------------------
CARTESIAN COORDINATES (ANGSTROEM)
---------------------------------
  C     -1.729647   -0.049290   -0.035591
  C     -0.090201   -0.416135    0.030348
  Cl    -2.566769   -1.523405    0.753032
  C     -2.358320    0.002818   -1.594050
  C     -2.180345    1.251732    0.929292
  C     -2.110946    0.991986    2.473180
  C     -3.662537    1.674205    0.747874
  C     -1.345199    2.529651    0.684587
  C      0.280340   -1.885901   -0.367576
  C      0.510792   -0.315835    1.457596
  C      0.789031    0.490505   -0.861495
  C     -1.818078   -1.120416   -2.518593
  C     -2.078740    1.330007   -2.336224
  C     -3.906268   -0.219288   -1.695967
  H     -0.320581    2.436089    1.047125
  H     -1.771458    3.383655    1.227097
  H     -1.309520    2.823602   -0.363295
  H     -4.344512    0.828498    0.876354
  H     -3.842875    2.167517   -0.207414
  H     -3.961977    2.419133    1.497556
  H     -2.735260    0.152281    2.790551
  H     -2.485784    1.864676    3.026176
  H     -1.109819    0.841961    2.864965
  H     -0.778299   -0.962085   -2.805377
  H     -2.360404   -1.149568   -3.473392
  H     -1.944904   -2.110686   -2.071269
  H      0.645917    0.296819   -1.925462
  H      1.854896    0.308849   -0.671053
  H      0.626281    1.552528   -0.684403
  H     -0.058837   -0.907124    2.180586
  H      0.606762    0.714885    1.799454
  H      1.536445   -0.707790    1.489433
  H     -0.219441   -2.632794    0.255303
  H      1.356940   -2.060202   -0.231760
  H      0.102610   -2.134041   -1.409249
  H     -1.025295    1.605678   -2.338151
  H     -2.648790    2.165945   -1.928454
  H     -2.377511    1.257621   -3.390184
  H     -4.225918   -1.176844   -1.275812
  H     -4.222601   -0.237833   -2.748338
  H     -4.509162    0.567406   -1.253406

----------------------------
CARTESIAN COORDINATES (A.U.)
----------------------------
  NO LB      ZA    FRAG     MASS         X           Y           Z
   0 C     6.0000    0    12.011   -3.268559   -0.093144   -0.067258
   1 C     6.0000    0    12.011   -0.170455   -0.786381    0.057350
   2 Cl   17.0000    0    35.453   -4.850490   -2.878819    1.423025
   3 C     6.0000    0    12.011   -4.456579    0.005326   -3.012318
   4 C     6.0000    0    12.011   -4.120255    2.365430    1.756108
   5 C     6.0000    0    12.011   -3.989110    1.874581    4.673633
   6 C     6.0000    0    12.011   -6.921192    3.163789    1.413277
   7 C     6.0000    0    12.011   -2.542058    4.780349    1.293682
   8 C     6.0000    0    12.011    0.529766   -3.563836   -0.694618
   9 C     6.0000    0    12.011    0.965258   -0.596842    2.754457
  10 C     6.0000    0    12.011    1.491052    0.926920   -1.627989
  11 C     6.0000    0    12.011   -3.435669   -2.117279   -4.759451
  12 C     6.0000    0    12.011   -3.928250    2.513348   -4.414824
  13 C     6.0000    0    12.011   -7.381776   -0.414393   -3.204914
  14 H     1.0000    0     1.008   -0.605810    4.603541    1.978779
  15 H     1.0000    0     1.008   -3.347570    6.394181    2.318878
  16 H     1.0000    0     1.008   -2.474634    5.335834   -0.686528
  17 H     1.0000    0     1.008   -8.209938    1.565634    1.656069
  18 H     1.0000    0     1.008   -7.261982    4.096013   -0.391956
  19 H     1.0000    0     1.008   -7.487052    4.571499    2.829970
  20 H     1.0000    0     1.008   -5.168893    0.287769    5.273376
  21 H     1.0000    0     1.008   -4.697451    3.523726    5.718643
  22 H     1.0000    0     1.008   -2.097254    1.591075    5.413999
  23 H     1.0000    0     1.008   -1.470772   -1.818076   -5.301394
  24 H     1.0000    0     1.008   -4.460517   -2.172368   -6.563760
  25 H     1.0000    0     1.008   -3.675335   -3.988618   -3.914132
  26 H     1.0000    0     1.008    1.220605    0.560906   -3.638597
  27 H     1.0000    0     1.008    3.505246    0.583640   -1.268106
  28 H     1.0000    0     1.008    1.183500    2.933852   -1.293334
  29 H     1.0000    0     1.008   -0.111185   -1.714216    4.120711
  30 H     1.0000    0     1.008    1.146614    1.350937    3.400476
  31 H     1.0000    0     1.008    2.903460   -1.337529    2.814621
  32 H     1.0000    0     1.008   -0.414683   -4.975259    0.482452
  33 H     1.0000    0     1.008    2.564245   -3.893217   -0.437963
  34 H     1.0000    0     1.008    0.193904   -4.032754   -2.663095
  35 H     1.0000    0     1.008   -1.937526    3.034291   -4.418465
  36 H     1.0000    0     1.008   -5.005488    4.093043   -3.644249
  37 H     1.0000    0     1.008   -4.492844    2.376559   -6.406519
  38 H     1.0000    0     1.008   -7.985828   -2.223913   -2.410936
  39 H     1.0000    0     1.008   -7.979560   -0.449440   -5.193607
  40 H     1.0000    0     1.008   -8.521081    1.072241   -2.368593

--------------------------------
INTERNAL COORDINATES (ANGSTROEM)
--------------------------------
 C      0   0   0     0.000000000000     0.00000000     0.00000000
 C      1   0   0     1.681281111597     0.00000000     0.00000000
 Cl     1   2   0     1.869683800585   104.36038448     0.00000000
 C      1   2   3     1.681290609572   114.06266846   246.75386360
 C      1   2   3     1.681304848576   114.06222116   113.24715335
 C      5   1   2     1.567122587695   115.16663311   290.64458690
 C      5   1   2     1.551866630507   113.55317355   173.96533314
 C      5   1   2     1.546101167630   113.82618639    52.81181306
 C      2   1   3     1.567117181589   115.16615071    43.88356550
 C      2   1   3     1.551866177736   113.55336424   287.20532505
 C      2   1   3     1.546100924802   113.82555895   166.05322997
 C      4   1   2     1.551868797432   113.55518037    40.44778717
 C      4   1   2     1.546097154883   113.82528278   279.29455648
 C      4   1   2     1.567118395664   115.16584408   157.12399857
 H      8   5   1     1.090884928971   112.57298966   289.53787570
 H      8   5   1     1.097877864150   110.79405784   171.67519329
 H      8   5   1     1.088915011354   113.14947644    52.59208185
 H      7   5   1     1.093991602841   111.79049716    53.01939758
 H      7   5   1     1.090162311753   112.55847898   288.00575685
 H      7   5   1     1.098455847454   111.41965817   171.31340269
 H      6   5   1     1.093433308861   112.82692502   301.80166506
 H      6   5   1     1.099042850002   110.42534724   183.88398313
 H      6   5   1     1.085476134099   114.79251582    66.67204662
 H     12   4   1     1.090161785016   112.55918524   288.00101980
 H     12   4   1     1.098457360280   111.41871448   171.30793680
 H     12   4   1     1.093992088966   111.79037459    53.01510801
 H     11   2   1     1.090881920315   112.57424825   289.53919683
 H     11   2   1     1.097877888130   110.79397407   171.67531080
 H     11   2   1     1.088917391553   113.14847912    52.59266163
 H     10   2   1     1.093990557022   111.79112205    53.00263002
 H     10   2   1     1.090165577938   112.55699718   287.98882133
 H     10   2   1     1.098455756169   111.41978158   171.29734329
 H      9   2   1     1.093438502696   112.82481438   301.77456745
 H      9   2   1     1.099042236337   110.42506146   183.85837609
 H      9   2   1     1.085469836115   114.79430324    66.64289350
 H     13   4   1     1.088919533109   113.14775409    52.58599584
 H     13   4   1     1.090883389358   112.57348117   289.53168160
 H     13   4   1     1.097877421838   110.79474649   171.66845710
 H     14   4   1     1.093444845170   112.82285119   301.74776928
 H     14   4   1     1.099043073809   110.42434893   183.83338505
 H     14   4   1     1.085462395653   114.79652985    66.61404739

---------------------------
INTERNAL COORDINATES (A.U.)
---------------------------
 C      0   0   0     0.000000000000     0.00000000     0.00000000
 C      1   0   0     3.177160855053     0.00000000     0.00000000
 Cl     1   2   0     3.533190340134   104.36038448     0.00000000
 C      1   2   3     3.177178803625   114.06266846   246.75386360
 C      1   2   3     3.177205711443   114.06222116   113.24715335
 C      5   1   2     2.961432509025   115.16663311   290.64458690
 C      5   1   2     2.932602928029   113.55317355   173.96533314
 C      5   1   2     2.921707782156   113.82618639    52.81181306
 C      2   1   3     2.961422292966   115.16615071    43.88356550
 C      2   1   3     2.932602072415   113.55336424   287.20532505
 C      2   1   3     2.921707323279   113.82555895   166.05322997
 C      4   1   2     2.932607022924   113.55518037    40.44778717
 C      4   1   2     2.921700199165   113.82528278   279.29455648
 C      4   1   2     2.961424587236   115.16584408   157.12399857
 H      8   5   1     2.061473759377   112.57298966   289.53787570
 H      8   5   1     2.074688491739   110.79405784   171.67519329
 H      8   5   1     2.057751154576   113.14947644    52.59208185
 H      7   5   1     2.067344522179   111.79049716    53.01939758
 H      7   5   1     2.060108210736   112.55847898   288.00575685
 H      7   5   1     2.075780721892   111.41965817   171.31340269
 H      6   5   1     2.066289499454   112.82692502   301.80166506
 H      6   5   1     2.076889995947   110.42534724   183.88398313
 H      6   5   1     2.051252618355   114.79251582    66.67204662
 H     12   4   1     2.060107215346   112.55918524   288.00101980
 H     12   4   1     2.075783580720   111.41871448   171.30793680
 H     12   4   1     2.067345440822   111.79037459    53.01510801
 H     11   2   1     2.061468073841   112.57424825   289.53919683
 H     11   2   1     2.074688537054   110.79397407   171.67531080
 H     11   2   1     2.057755652499   113.14847912    52.59266163
 H     10   2   1     2.067342545868   111.79112205    53.00263002
 H     10   2   1     2.060114382931   112.55699718   287.98882133
 H     10   2   1     2.075780549389   111.41978158   171.29734329
 H      9   2   1     2.066299314381   112.82481438   301.77456745
 H      9   2   1     2.076888836290   110.42506146   183.85837609
 H      9   2   1     2.051240716890   114.79430324    66.64289350
 H     13   4   1     2.057759699454   113.14775409    52.58599584
 H     13   4   1     2.061470849930   112.57348117   289.53168160
 H     13   4   1     2.074687655889   110.79474649   171.66845710
 H     14   4   1     2.066311299920   112.82285119   301.74776928
 H     14   4   1     2.076890418882   110.42434893   183.83338505
 H     14   4   1     2.051226656453   114.79652985    66.61404739

---------------------
BASIS SET INFORMATION
---------------------
There are 3 groups of distinct atoms

 Group   1 Type C   : 10s4p1d contracted to 3s2p1d pattern {631/31/1}
 Group   2 Type Cl  : 16s10p1d contracted to 4s3p1d pattern {6631/631/1}
 Group   3 Type H   : 4s contracted to 2s pattern {31}

Atom   0C    basis set group =>   1
Atom   1C    basis set group =>   1
Atom   2Cl   basis set group =>   2
Atom   3C    basis set group =>   1
Atom   4C    basis set group =>   1
Atom   5C    basis set group =>   1
Atom   6C    basis set group =>   1
Atom   7C    basis set group =>   1
Atom   8C    basis set group =>   1
Atom   9C    basis set group =>   1
Atom  10C    basis set group =>   1
Atom  11C    basis set group =>   1
Atom  12C    basis set group =>   1
Atom  13C    basis set group =>   1
Atom  14H    basis set group =>   3
Atom  15H    basis set group =>   3
Atom  16H    basis set group =>   3
Atom  17H    basis set group =>   3
Atom  18H    basis set group =>   3
Atom  19H    basis set group =>   3
Atom  20H    basis set group =>   3
Atom  21H    basis set group =>   3
Atom  22H    basis set group =>   3
Atom  23H    basis set group =>   3
Atom  24H    basis set group =>   3
Atom  25H    basis set group =>   3
Atom  26H    basis set group =>   3
Atom  27H    basis set group =>   3
Atom  28H    basis set group =>   3
Atom  29H    basis set group =>   3
Atom  30H    basis set group =>   3
Atom  31H    basis set group =>   3
Atom  32H    basis set group =>   3
Atom  33H    basis set group =>   3
Atom  34H    basis set group =>   3
Atom  35H    basis set group =>   3
Atom  36H    basis set group =>   3
Atom  37H    basis set group =>   3
Atom  38H    basis set group =>   3
Atom  39H    basis set group =>   3
Atom  40H    basis set group =>   3
---------------------------------
AUXILIARY/J BASIS SET INFORMATION
---------------------------------
There are 3 groups of distinct atoms

 Group   1 Type C   : 12s5p4d2f1g contracted to 6s4p3d1f1g pattern {711111/2111/211/2/1}
 Group   2 Type Cl  : 14s5p5d2f1g contracted to 8s4p3d1f1g pattern {71111111/2111/311/2/1}
 Group   3 Type H   : 5s2p1d contracted to 3s1p1d pattern {311/2/1}

Atom   0C    basis set group =>   1
Atom   1C    basis set group =>   1
Atom   2Cl   basis set group =>   2
Atom   3C    basis set group =>   1
Atom   4C    basis set group =>   1
Atom   5C    basis set group =>   1
Atom   6C    basis set group =>   1
Atom   7C    basis set group =>   1
Atom   8C    basis set group =>   1
Atom   9C    basis set group =>   1
Atom  10C    basis set group =>   1
Atom  11C    basis set group =>   1
Atom  12C    basis set group =>   1
Atom  13C    basis set group =>   1
Atom  14H    basis set group =>   3
Atom  15H    basis set group =>   3
Atom  16H    basis set group =>   3
Atom  17H    basis set group =>   3
Atom  18H    basis set group =>   3
Atom  19H    basis set group =>   3
Atom  20H    basis set group =>   3
Atom  21H    basis set group =>   3
Atom  22H    basis set group =>   3
Atom  23H    basis set group =>   3
Atom  24H    basis set group =>   3
Atom  25H    basis set group =>   3
Atom  26H    basis set group =>   3
Atom  27H    basis set group =>   3
Atom  28H    basis set group =>   3
Atom  29H    basis set group =>   3
Atom  30H    basis set group =>   3
Atom  31H    basis set group =>   3
Atom  32H    basis set group =>   3
Atom  33H    basis set group =>   3
Atom  34H    basis set group =>   3
Atom  35H    basis set group =>   3
Atom  36H    basis set group =>   3
Atom  37H    basis set group =>   3
Atom  38H    basis set group =>   3
Atom  39H    basis set group =>   3
Atom  40H    basis set group =>   3


           ************************************************************
           *        Program running with 8 parallel MPI-processes     *
           *              working on a common directory               *
           ************************************************************
------------------------------------------------------------------------------
                           ORCA GTO INTEGRAL CALCULATION
                           -- RI-GTO INTEGRALS CHOSEN --
------------------------------------------------------------------------------
------------------------------------------------------------------------------
                   ___                                                        
                  /   \      - P O W E R E D   B Y -                         
                 /     \                                                     
                 |  |  |   _    _      __       _____    __    __             
                 |  |  |  | |  | |    /  \     |  _  \  |  |  /  |          
                  \  \/   | |  | |   /    \    | | | |  |  | /  /          
                 / \  \   | |__| |  /  /\  \   | |_| |  |  |/  /          
                |  |  |   |  __  | /  /__\  \  |    /   |      \           
                |  |  |   | |  | | |   __   |  |    \   |  |\   \          
                \     /   | |  | | |  |  |  |  | |\  \  |  | \   \       
                 \___/    |_|  |_| |__|  |__|  |_| \__\ |__|  \__/        
                                                                              
                      - O R C A' S   B I G   F R I E N D -                    
                                      &                                       
                       - I N T E G R A L  F E E D E R -                       
                                                                              
 v1 FN, 2020, v2 2021                                                         
------------------------------------------------------------------------------


Reading SHARK input file tBu3CCl_0_1_bp86_6-31gpol.opt.SHARKINP.tmp ... SHARK General Contraction Test:  Segmented basis detected
   -> Pre-screening matrix *NOT* found on disk - recalculating with NShells=140
   -> Leaving CheckPreScreeningMatrix
ok
----------------------
SHARK INTEGRAL PACKAGE
----------------------

Number of atoms                             ...     41
Number of basis functions                   ...    254
Number of shells                            ...    140
Maximum angular momentum                    ...      2
Integral batch strategy                     ... SHARK/LIBINT Hybrid
RI-J (if used) integral strategy            ... SPLIT-RIJ (Revised 2003 algorithm where possible)
Printlevel                                  ...      2
Contraction scheme used                     ... SEGMENTED contraction
Coulomb Range Separation                    ... NOT USED
Exchange Range Separation                   ... NOT USED
Finite Nucleus Model                        ... NOT USED
Auxiliary Coulomb fitting basis             ... AVAILABLE
   # of basis functions in Aux-J            ...    985
   # of shells in Aux-J                     ...    347
   Maximum angular momentum in Aux-J        ...      4
Auxiliary J/K fitting basis                 ... NOT available
Auxiliary Correlation fitting basis         ... NOT available
Auxiliary 'external' fitting basis          ... NOT available
Integral threshold                          ...     2.500000e-11
Primitive cut-off                           ...     2.500000e-12
Primitive pair pre-selection threshold      ...     2.500000e-12

Calculating pre-screening integrals         ... done (  0.0 sec) Dimension = 140
Organizing shell pair data                  ... done (  0.1 sec)
Shell pair information
Total number of shell pairs                 ...      9870
Shell pairs after pre-screening             ...      8936
Total number of primitive shell pairs       ...     55020
Primitive shell pairs kept                  ...     29702
          la=0 lb=0:   4152 shell pairs
          la=1 lb=0:   2654 shell pairs
          la=1 lb=1:    435 shell pairs
          la=2 lb=0:   1200 shell pairs
          la=2 lb=1:    397 shell pairs
          la=2 lb=2:     98 shell pairs

Calculating one electron integrals          ... done (  0.0 sec)
Calculating RI/J V-Matrix + Cholesky decomp.... done (  0.2 sec)
Calculating Nuclear repulsion               ... done (  0.0 sec) ENN=   1217.954904568990 Eh

SHARK setup successfully completed in   0.7 seconds

Maximum memory used throughout the entire GTOINT-calculation: 19.1 MB


           ************************************************************
           *        Program running with 8 parallel MPI-processes     *
           *              working on a common directory               *
           ************************************************************
-------------------------------------------------------------------------------
                                 ORCA SCF
-------------------------------------------------------------------------------

------------
SCF SETTINGS
------------
Hamiltonian:
 Density Functional     Method          .... DFT(GTOs)
 Exchange Functional    Exchange        .... B88
   X-Alpha parameter    XAlpha          ....  0.666667
   Becke's b parameter  XBeta           ....  0.004200
 Correlation Functional Correlation     .... P86
 LDA part of GGA corr.  LDAOpt          .... PW91-LDA
 Gradients option       PostSCFGGA      .... off
   Density functional embedding theory  .... OFF
   NL short-range parameter             ....  4.400000
 RI-approximation to the Coulomb term is turned on
   Number of AuxJ basis functions       .... 985


General Settings:
 Integral files         IntName         .... tBu3CCl_0_1_bp86_6-31gpol.opt
 Hartree-Fock type      HFTyp           .... RHF
 Total Charge           Charge          ....    0
 Multiplicity           Mult            ....    1
 Number of Electrons    NEL             ....  122
 Basis Dimension        Dim             ....  254
 Nuclear Repulsion      ENuc            ....   1217.9549045690 Eh

Convergence Acceleration:
 DIIS                   CNVDIIS         .... on
   Start iteration      DIISMaxIt       ....    12
   Startup error        DIISStart       ....  0.200000
   # of expansion vecs  DIISMaxEq       ....     5
   Bias factor          DIISBfac        ....   1.050
   Max. coefficient     DIISMaxC        ....  10.000
 Trust-Rad. Augm. Hess. CNVTRAH         .... auto
   Auto Start mean grad. ratio tolernc. ....  1.125000
   Auto Start start iteration           ....    20
   Auto Start num. interpolation iter.  ....    10
   Max. Number of Micro iterations      ....    16
   Max. Number of Macro iterations      .... Maxiter - #DIIS iter
   Number of Davidson start vectors     ....     2
   Converg. threshold I  (grad. norm)   ....   1.000e-05
   Converg. threshold II (energy diff.) ....   1.000e-08
   Grad. Scal. Fac. for Micro threshold ....   0.100
   Minimum threshold for Micro iter.    ....   0.010
   NR start threshold (gradient norm)   ....   0.001
   Initial trust radius                 ....   0.400
   Minimum AH scaling param. (alpha)    ....   1.000
   Maximum AH scaling param. (alpha)    .... 1000.000
   Orbital update algorithm             .... Taylor
   White noise on init. David. guess    .... on
   Maximum white noise                  ....   0.010
   Quad. conv. algorithm                .... NR
 SOSCF                  CNVSOSCF        .... on
   Start iteration      SOSCFMaxIt      ....   150
   Startup grad/error   SOSCFStart      ....  0.003300
 Level Shifting         CNVShift        .... on
   Level shift para.    LevelShift      ....    0.2500
   Turn off err/grad.   ShiftErr        ....    0.0010
 Zerner damping         CNVZerner       .... off
 Static damping         CNVDamp         .... on
   Fraction old density DampFac         ....    0.7000
   Max. Damping (<1)    DampMax         ....    0.9800
   Min. Damping (>=0)   DampMin         ....    0.0000
   Turn off err/grad.   DampErr         ....    0.1000
 Fernandez-Rico         CNVRico         .... off

SCF Procedure:
 Maximum # iterations   MaxIter         ....   500
 SCF integral mode      SCFMode         .... Direct
   Integral package                     .... SHARK and LIBINT hybrid scheme
 Reset frequency        DirectResetFreq ....    20
 Integral Threshold     Thresh          ....  2.500e-11 Eh
 Primitive CutOff       TCut            ....  2.500e-12 Eh

Convergence Tolerance:
 Convergence Check Mode ConvCheckMode   .... Total+1el-Energy
 Convergence forced     ConvForced      .... 0
 Energy Change          TolE            ....  1.000e-08 Eh
 1-El. energy change                    ....  1.000e-05 Eh
 Orbital Gradient       TolG            ....  1.000e-05
 Orbital Rotation angle TolX            ....  1.000e-05
 DIIS Error             TolErr          ....  5.000e-07


Diagonalization of the overlap matrix:
Smallest eigenvalue                        ... 3.912e-03
Time for diagonalization                   ...    0.175 sec
Threshold for overlap eigenvalues          ... 1.000e-08
Number of eigenvalues below threshold      ... 0
Time for construction of square roots      ...    0.028 sec
Total time needed                          ...    0.204 sec

SHARK General Contraction Test:  Segmented basis detected
   -> Pre-screening matrix found on disk - Trying to read with NShells=140
   -> Passing Pre-screening matrix on to SHARK ...ok
   -> Leaving CheckPreScreeningMatrix
----------------------
SHARK INTEGRAL PACKAGE
----------------------

Number of atoms                             ...     41
Number of basis functions                   ...    254
Number of shells                            ...    140
Maximum angular momentum                    ...      2
Integral batch strategy                     ... SHARK/LIBINT Hybrid
RI-J (if used) integral strategy            ... SPLIT-RIJ (Revised 2003 algorithm where possible)
Printlevel                                  ...      2
Contraction scheme used                     ... SEGMENTED contraction
Coulomb Range Separation                    ... NOT USED
Exchange Range Separation                   ... NOT USED
Finite Nucleus Model                        ... NOT USED
Auxiliary Coulomb fitting basis             ... AVAILABLE
   # of basis functions in Aux-J            ...    985
   # of shells in Aux-J                     ...    347
   Maximum angular momentum in Aux-J        ...      4
Auxiliary J/K fitting basis                 ... NOT available
Auxiliary Correlation fitting basis         ... NOT available
Auxiliary 'external' fitting basis          ... NOT available
Integral threshold                          ...     2.500000e-11
Primitive cut-off                           ...     2.500000e-12
Primitive pair pre-selection threshold      ...     2.500000e-12

Time for model grid setup =    0.393 sec

------------------------------
INITIAL GUESS: MODEL POTENTIAL
------------------------------
Loading Hartree-Fock densities                     ... done
Calculating cut-offs                               ... done
Initializing the effective Hamiltonian             ... done
Setting up the integral package (SHARK)            ... done
Starting the Coulomb interaction                   ...     -> Generating integrals - 
    -> L=0 0 :     0.054 sec done=   1179133 skipped=     23861 prim-skipped=         0
    -> L=1 0 :     0.045 sec done=    765852 skipped=      8080 prim-skipped=         0
    -> L=1 1 :     0.020 sec done=    125448 skipped=       795 prim-skipped=         0
    -> L=2 0 :     0.017 sec done=    328792 skipped=     13099 prim-skipped=         0
    -> L=2 1 :     0.010 sec done=    113544 skipped=      1594 prim-skipped=         0
    -> L=2 2 :     0.004 sec done=     25670 skipped=       622 prim-skipped=         0
done (   0.2 sec)
Reading the grid                                   ... done
Mapping shells                                     ... done
Starting the XC term evaluation                    ... done (   0.1 sec)
  promolecular density results
     # of electrons  =    121.988134634
     EX              =   -102.325176904
     EC              =     -4.535648393
     EX+EC           =   -106.860825297
Transforming the Hamiltonian                       ... done (   0.0 sec)
Diagonalizing the Hamiltonian                      ... done (   0.0 sec)
Back transforming the eigenvectors                 ... done (   0.0 sec)
Now organizing SCF variables                       ... done
                      ------------------
                      INITIAL GUESS DONE (   0.7 sec)
                      ------------------
-------------------
DFT GRID GENERATION
-------------------

General Integration Accuracy     IntAcc      ... 4.388
Radial Grid Type                 RadialGrid  ... OptM3 with GC (2021)
Angular Grid (max. ang.)         AngularGrid ... 4 (Lebedev-302)
Angular grid pruning method      GridPruning ... 4 (adaptive)
Weight generation scheme         WeightScheme... Becke
Basis function cutoff            BFCut       ... 1.0000e-11
Integration weight cutoff        WCut        ... 1.0000e-14
Angular grids for H and He will be reduced by one unit
Partially contracted basis set               ... off
Rotationally invariant grid construction     ... off

Total number of grid points                  ...   168740
Total number of batches                      ...     2657
Average number of points per batch           ...       63
Average number of grid points per atom       ...     4116
Time for grid setup =    1.291 sec

--------------
SCF ITERATIONS
--------------
               ***  Starting incremental Fock matrix formation  ***
==>> SHARK/AuxDens: NDens=1 Thresh =     2.500000e-11 TCut=    2.500000e-12 Lmax=2 LmaxAux=4
    -> Making Hermite density - ok     0.060 sec
    -> Making Aux-basis density - (lmax=2)
    -> L=0 0:    0.197 sec done=   1298463 ( 90.1%) skipped=    142008 
    -> L=1 0:    0.078 sec done=    882332 ( 95.8%) skipped=     38545 
    -> L=1 1:    0.030 sec done=    146668 ( 97.9%) skipped=      3161 
    -> L=2 0:    0.037 sec done=    351288 ( 84.4%) skipped=     64720 
    -> L=2 1:    0.023 sec done=    126302 ( 91.7%) skipped=     11457 
    -> L=2 2:    0.018 sec done=     27066 ( 86.7%) skipped=      4164 
    -> Aux basis density formed in    0.7 sec
    -> Solving linear equations - ok (   0.0 sec)
        Auxbasis Hermite Density:
        P|s>                     ...  0.000
        P|p>                     ...  0.000
        P|d>                     ...  0.000
        P|f>                     ...  0.000
        P|g>                     ...  0.000
        Building the Coulomb matrix: 
        J|ss>                          ... done (  0.1 sec) ndone=  8004267 nskipped1=   163318 nskipped2=   496514
        J|ps>                          ... done (  0.1 sec) ndone=  4944193 nskipped1=    36368 nskipped2=   192952
        J|pp>                          ... done (  0.0 sec) ndone=   798618 nskipped1=     1508 nskipped2=    11790
        J|ds>                          ... done (  0.0 sec) ndone=  1133238 nskipped1=    52272 nskipped2=   125905
        J|dp>                          ... done (  0.1 sec) ndone=   366284 nskipped1=     6952 nskipped2=    21864
        J|dd>                          ... done (  0.0 sec) ndone=    48165 nskipped1=      800 nskipped2=      756
        Coulomb matrix built in   0.6 sec

        Total time for Split-RI-J                ...    2.249 sec
          (0) Prelude                            ...    0.000 sec
          (1) Hermite density                    ...    0.000 sec
          (2) Aux basis density                  ...    0.000 sec (inner=  0.0)
          (3) Linear equation solution           ...    0.000 sec
          (4) J-Matrix construction              ...    0.590 sec (inner=  0.3)
        ---------------------------------------------------------

                         ----------------------------
                         !        ITERATION     0   !
                         ----------------------------
   Total Energy        :    -971.328106681307 Eh
   Energy Change       :    -971.328106681307 Eh
   MAX-DP              :       0.062181777767
   RMS-DP              :       0.002058809205
   Actual Damping      :       0.7000
   Actual Level Shift  :       0.2500 Eh
   Int. Num. El.       :   122.00019644 (UP=   61.00009822 DN=   61.00009822)
   Exchange            :  -105.69554916
   Correlation         :    -4.52831062

==>> SHARK/AuxDens: NDens=1 Thresh =     2.500000e-11 TCut=    2.500000e-12 Lmax=2 LmaxAux=4
    -> Making Hermite density - ok     0.020 sec
    -> Making Aux-basis density - (lmax=2)
    -> L=0 0:    0.063 sec done=   1235701 ( 85.8%) skipped=    204770 
    -> L=1 0:    0.063 sec done=    852599 ( 92.6%) skipped=     68278 
    -> L=1 1:    0.017 sec done=    143703 ( 95.9%) skipped=      6126 
    -> L=2 0:    0.020 sec done=    335662 ( 80.7%) skipped=     80346 
    -> L=2 1:    0.011 sec done=    123608 ( 89.7%) skipped=     14151 
    -> L=2 2:    0.003 sec done=     26955 ( 86.3%) skipped=      4275 
    -> Aux basis density formed in    0.2 sec
    -> Solving linear equations - ok (   0.0 sec)
        Auxbasis Hermite Density:
        P|s>                     ...  0.000
        P|p>                     ...  0.000
        P|d>                     ...  0.000
        P|f>                     ...  0.000
        P|g>                     ...  0.000
        Building the Coulomb matrix: 
        J|ss>                          ... done (  0.0 sec) ndone=  7750588 nskipped1=   399285 nskipped2=   346635
        J|ps>                          ... done (  0.0 sec) ndone=  4878478 nskipped1=    99665 nskipped2=   150926
        J|pp>                          ... done (  0.0 sec) ndone=   794468 nskipped1=     4470 nskipped2=    11281
        J|ds>                          ... done (  0.0 sec) ndone=  1093701 nskipped1=    97055 nskipped2=    80416
        J|dp>                          ... done (  0.0 sec) ndone=   358283 nskipped1=    14811 nskipped2=    14954
        J|dd>                          ... done (  0.0 sec) ndone=    45624 nskipped1=     2719 nskipped2=      216
        Coulomb matrix built in   0.1 sec

        Total time for Split-RI-J                ...    0.410 sec
          (0) Prelude                            ...    0.000 sec
          (1) Hermite density                    ...    0.000 sec
          (2) Aux basis density                  ...    0.000 sec (inner=  0.0)
          (3) Linear equation solution           ...    0.000 sec
          (4) J-Matrix construction              ...    0.128 sec (inner=  0.1)
        ---------------------------------------------------------

                         ----------------------------
                         !        ITERATION     1   !
                         ----------------------------
   Total Energy        :    -971.552037233987 Eh
   Energy Change       :      -0.223930552679 Eh
   MAX-DP              :       0.039768218862
   RMS-DP              :       0.001517953667
   Actual Damping      :       0.7000
   Actual Level Shift  :       0.2500 Eh
   Int. Num. El.       :   122.00021572 (UP=   61.00010786 DN=   61.00010786)
   Exchange            :  -105.06086079
   Correlation         :    -4.50814002

==>> SHARK/AuxDens: NDens=1 Thresh =     2.500000e-11 TCut=    2.500000e-12 Lmax=2 LmaxAux=4
    -> Making Hermite density - ok     0.022 sec
    -> Making Aux-basis density - (lmax=2)
    -> L=0 0:    0.063 sec done=   1223488 ( 84.9%) skipped=    216983 
    -> L=1 0:    0.064 sec done=    853227 ( 92.7%) skipped=     67650 
    -> L=1 1:    0.017 sec done=    143532 ( 95.8%) skipped=      6297 
    -> L=2 0:    0.020 sec done=    333197 ( 80.1%) skipped=     82811 
    -> L=2 1:    0.011 sec done=    121797 ( 88.4%) skipped=     15962 
    -> L=2 2:    0.002 sec done=     26746 ( 85.6%) skipped=      4484 
    -> Aux basis density formed in    0.2 sec
    -> Solving linear equations - ok (   0.0 sec)
        Auxbasis Hermite Density:
        P|s>                     ...  0.000
        P|p>                     ...  0.000
        P|d>                     ...  0.000
        P|f>                     ...  0.000
        P|g>                     ...  0.000
        Building the Coulomb matrix: 
        J|ss>                          ... done (  0.0 sec) ndone=  7699415 nskipped1=   431745 nskipped2=   319548
        J|ps>                          ... done (  0.0 sec) ndone=  4865709 nskipped1=   108051 nskipped2=   143752
        J|pp>                          ... done (  0.0 sec) ndone=   793497 nskipped1=     4869 nskipped2=    11062
        J|ds>                          ... done (  0.0 sec) ndone=  1087717 nskipped1=   101810 nskipped2=    75547
        J|dp>                          ... done (  0.0 sec) ndone=   357077 nskipped1=    15634 nskipped2=    14421
        J|dd>                          ... done (  0.0 sec) ndone=    44829 nskipped1=     3105 nskipped2=       99
        Coulomb matrix built in   0.1 sec

        Total time for Split-RI-J                ...    0.364 sec
          (0) Prelude                            ...    0.000 sec
          (1) Hermite density                    ...    0.000 sec
          (2) Aux basis density                  ...    0.000 sec (inner=  0.0)
          (3) Linear equation solution           ...    0.000 sec
          (4) J-Matrix construction              ...    0.128 sec (inner=  0.1)
        ---------------------------------------------------------
                               ***Turning on DIIS***

                         ----------------------------
                         !        ITERATION     2   !
                         ----------------------------
   Total Energy        :    -971.627258174602 Eh
   Energy Change       :      -0.075220940616 Eh
   MAX-DP              :       0.055950609577
   RMS-DP              :       0.002294695347
   Actual Damping      :       0.0000
   Actual Level Shift  :       0.2500 Eh
   Int. Num. El.       :   122.00023384 (UP=   61.00011692 DN=   61.00011692)
   Exchange            :  -104.64735670
   Correlation         :    -4.49614382
   DIIS-Error          :       0.020127114216

==>> SHARK/AuxDens: NDens=1 Thresh =     2.500000e-11 TCut=    2.500000e-12 Lmax=2 LmaxAux=4
    -> Making Hermite density - ok     0.020 sec
    -> Making Aux-basis density - (lmax=2)
    -> L=0 0:    0.065 sec done=   1247436 ( 86.6%) skipped=    193035 
    -> L=1 0:    0.065 sec done=    857456 ( 93.1%) skipped=     63421 
    -> L=1 1:    0.017 sec done=    144336 ( 96.3%) skipped=      5493 
    -> L=2 0:    0.020 sec done=    335317 ( 80.6%) skipped=     80691 
    -> L=2 1:    0.011 sec done=    122416 ( 88.9%) skipped=     15343 
    -> L=2 2:    0.003 sec done=     26892 ( 86.1%) skipped=      4338 
    -> Aux basis density formed in    0.2 sec
    -> Solving linear equations - ok (   0.0 sec)
        Auxbasis Hermite Density:
        P|s>                     ...  0.000
        P|p>                     ...  0.000
        P|d>                     ...  0.000
        P|f>                     ...  0.000
        P|g>                     ...  0.000
        Building the Coulomb matrix: 
        J|ss>                          ... done (  0.0 sec) ndone=  7692421 nskipped1=   415315 nskipped2=   304720
        J|ps>                          ... done (  0.0 sec) ndone=  4864216 nskipped1=   103383 nskipped2=   140001
        J|pp>                          ... done (  0.0 sec) ndone=   793260 nskipped1=     4634 nskipped2=    10938
        J|ds>                          ... done (  0.0 sec) ndone=  1086649 nskipped1=    99795 nskipped2=    74132
        J|dp>                          ... done (  0.0 sec) ndone=   356978 nskipped1=    15131 nskipped2=    14339
        J|dd>                          ... done (  0.0 sec) ndone=    44671 nskipped1=     3048 nskipped2=       33
        Coulomb matrix built in   0.1 sec

        Total time for Split-RI-J                ...    0.366 sec
          (0) Prelude                            ...    0.000 sec
          (1) Hermite density                    ...    0.000 sec
          (2) Aux basis density                  ...    0.000 sec (inner=  0.0)
          (3) Linear equation solution           ...    0.000 sec
          (4) J-Matrix construction              ...    0.128 sec (inner=  0.1)
        ---------------------------------------------------------

                         ----------------------------
                         !        ITERATION     3   !
                         ----------------------------
   Total Energy        :    -971.733465300109 Eh
   Energy Change       :      -0.106207125507 Eh
   MAX-DP              :       0.026244049728
   RMS-DP              :       0.001015091389
   Actual Damping      :       0.0000
   Actual Level Shift  :       0.2500 Eh
   Int. Num. El.       :   122.00026989 (UP=   61.00013495 DN=   61.00013495)
   Exchange            :  -104.09175004
   Correlation         :    -4.48635119
   DIIS-Error          :       0.046204655217
   DIIS coefficients:
      0.70763   0.29237

==>> SHARK/AuxDens: NDens=1 Thresh =     2.500000e-11 TCut=    2.500000e-12 Lmax=2 LmaxAux=4
    -> Making Hermite density - ok     0.020 sec
    -> Making Aux-basis density - (lmax=2)
    -> L=0 0:    0.063 sec done=   1209056 ( 83.9%) skipped=    231415 
    -> L=1 0:    0.063 sec done=    847140 ( 92.0%) skipped=     73737 
    -> L=1 1:    0.017 sec done=    143414 ( 95.7%) skipped=      6415 
    -> L=2 0:    0.020 sec done=    329709 ( 79.3%) skipped=     86299 
    -> L=2 1:    0.011 sec done=    121147 ( 87.9%) skipped=     16612 
    -> L=2 2:    0.002 sec done=     26368 ( 84.4%) skipped=      4862 
    -> Aux basis density formed in    0.2 sec
    -> Solving linear equations - ok (   0.0 sec)
        Auxbasis Hermite Density:
        P|s>                     ...  0.000
        P|p>                     ...  0.000
        P|d>                     ...  0.000
        P|f>                     ...  0.000
        P|g>                     ...  0.000
        Building the Coulomb matrix: 
        J|ss>                          ... done (  0.0 sec) ndone=  7643437 nskipped1=   484755 nskipped2=   311582
        J|ps>                          ... done (  0.0 sec) ndone=  4850795 nskipped1=   122753 nskipped2=   140863
        J|pp>                          ... done (  0.0 sec) ndone=   792649 nskipped1=     5658 nskipped2=    11086
        J|ds>                          ... done (  0.0 sec) ndone=  1082522 nskipped1=   107778 nskipped2=    73686
        J|dp>                          ... done (  0.0 sec) ndone=   355903 nskipped1=    16945 nskipped2=    14160
        J|dd>                          ... done (  0.0 sec) ndone=    44592 nskipped1=     3343 nskipped2=       78
        Coulomb matrix built in   0.1 sec

        Total time for Split-RI-J                ...    0.363 sec
          (0) Prelude                            ...    0.000 sec
          (1) Hermite density                    ...    0.000 sec
          (2) Aux basis density                  ...    0.000 sec (inner=  0.0)
          (3) Linear equation solution           ...    0.000 sec
          (4) J-Matrix construction              ...    0.128 sec (inner=  0.1)
        ---------------------------------------------------------

                         ----------------------------
                         !        ITERATION     4   !
                         ----------------------------
   Total Energy        :    -971.771388756594 Eh
   Energy Change       :      -0.037923456485 Eh
   MAX-DP              :       0.010258789030
   RMS-DP              :       0.000347397605
   Actual Damping      :       0.0000
   Actual Level Shift  :       0.2500 Eh
   Int. Num. El.       :   122.00026248 (UP=   61.00013124 DN=   61.00013124)
   Exchange            :  -104.32265833
   Correlation         :    -4.49584630
   DIIS-Error          :       0.010492612584
   DIIS coefficients:
      0.24584  -0.08204   0.83619

==>> SHARK/AuxDens: NDens=1 Thresh =     2.500000e-11 TCut=    2.500000e-12 Lmax=2 LmaxAux=4
    -> Making Hermite density - ok     0.020 sec
    -> Making Aux-basis density - (lmax=2)
    -> L=0 0:    0.061 sec done=   1167101 ( 81.0%) skipped=    273370 
    -> L=1 0:    0.062 sec done=    834291 ( 90.6%) skipped=     86586 
    -> L=1 1:    0.017 sec done=    142631 ( 95.2%) skipped=      7198 
    -> L=2 0:    0.019 sec done=    319422 ( 76.8%) skipped=     96586 
    -> L=2 1:    0.011 sec done=    120158 ( 87.2%) skipped=     17601 
    -> L=2 2:    0.002 sec done=     24758 ( 79.3%) skipped=      6472 
    -> Aux basis density formed in    0.2 sec
    -> Solving linear equations - ok (   0.0 sec)
        Auxbasis Hermite Density:
        P|s>                     ...  0.000
        P|p>                     ...  0.000
        P|d>                     ...  0.000
        P|f>                     ...  0.000
        P|g>                     ...  0.000
        Building the Coulomb matrix: 
        J|ss>                          ... done (  0.0 sec) ndone=  7388223 nskipped1=   669974 nskipped2=   244728
        J|ps>                          ... done (  0.0 sec) ndone=  4783122 nskipped1=   174798 nskipped2=   119769
        J|pp>                          ... done (  0.0 sec) ndone=   787252 nskipped1=     9251 nskipped2=    10680
        J|ds>                          ... done (  0.0 sec) ndone=  1058938 nskipped1=   127445 nskipped2=    63605
        J|dp>                          ... done (  0.0 sec) ndone=   349938 nskipped1=    21489 nskipped2=    12486
        J|dd>                          ... done (  0.0 sec) ndone=    43533 nskipped1=     3921 nskipped2=        0
        Coulomb matrix built in   0.1 sec

        Total time for Split-RI-J                ...    0.355 sec
          (0) Prelude                            ...    0.000 sec
          (1) Hermite density                    ...    0.000 sec
          (2) Aux basis density                  ...    0.000 sec (inner=  0.0)
          (3) Linear equation solution           ...    0.000 sec
          (4) J-Matrix construction              ...    0.125 sec (inner=  0.1)
        ---------------------------------------------------------

                         ----------------------------
                         !        ITERATION     5   !
                         ----------------------------
   Total Energy        :    -971.773689145932 Eh
   Energy Change       :      -0.002300389338 Eh
   MAX-DP              :       0.003172503158
   RMS-DP              :       0.000117877902
   Actual Damping      :       0.0000
   Actual Level Shift  :       0.2500 Eh
   Int. Num. El.       :   122.00025741 (UP=   61.00012870 DN=   61.00012870)
   Exchange            :  -104.39231663
   Correlation         :    -4.49781929
   DIIS-Error          :       0.004229691060
   DIIS coefficients:
      0.07611  -0.05619   0.22583   0.75425

==>> SHARK/AuxDens: NDens=1 Thresh =     2.500000e-11 TCut=    2.500000e-12 Lmax=2 LmaxAux=4
    -> Making Hermite density - ok     0.020 sec
    -> Making Aux-basis density - (lmax=2)
    -> L=0 0:    0.058 sec done=   1122880 ( 78.0%) skipped=    317591 
    -> L=1 0:    0.062 sec done=    824413 ( 89.5%) skipped=     96464 
    -> L=1 1:    0.017 sec done=    142211 ( 94.9%) skipped=      7618 
    -> L=2 0:    0.018 sec done=    304728 ( 73.3%) skipped=    111280 
    -> L=2 1:    0.011 sec done=    119780 ( 86.9%) skipped=     17979 
    -> L=2 2:    0.002 sec done=     22779 ( 72.9%) skipped=      8451 
    -> Aux basis density formed in    0.2 sec
    -> Solving linear equations - ok (   0.0 sec)
        Auxbasis Hermite Density:
        P|s>                     ...  0.000
        P|p>                     ...  0.000
        P|d>                     ...  0.000
        P|f>                     ...  0.000
        P|g>                     ...  0.000
        Building the Coulomb matrix: 
        J|ss>                          ... done (  0.0 sec) ndone=  7086448 nskipped1=   869495 nskipped2=   178194
        J|ps>                          ... done (  0.0 sec) ndone=  4694186 nskipped1=   233675 nskipped2=    96293
        J|pp>                          ... done (  0.0 sec) ndone=   780481 nskipped1=    13465 nskipped2=     9289
        J|ds>                          ... done (  0.0 sec) ndone=  1027204 nskipped1=   150765 nskipped2=    52039
        J|dp>                          ... done (  0.0 sec) ndone=   344126 nskipped1=    25341 nskipped2=    11190
        J|dd>                          ... done (  0.0 sec) ndone=    43187 nskipped1=     4183 nskipped2=        0
        Coulomb matrix built in   0.1 sec

        Total time for Split-RI-J                ...    0.346 sec
          (0) Prelude                            ...    0.000 sec
          (1) Hermite density                    ...    0.000 sec
          (2) Aux basis density                  ...    0.000 sec (inner=  0.0)
          (3) Linear equation solution           ...    0.000 sec
          (4) J-Matrix construction              ...    0.122 sec (inner=  0.1)
        ---------------------------------------------------------
                      *** Initiating the SOSCF procedure ***
                           *** Shutting down DIIS ***
                      *** Re-Reading the Fockian *** 
                      *** Removing any level shift *** 

                         ----------------------------
                         !        ITERATION     6   !
                         ----------------------------
   Total Energy        :    -971.773875102859 Eh
   Energy Change       :      -0.000185956927 Eh
   MAX-DP              :       0.001797814955
   RMS-DP              :       0.000060391847
   Orbital gradient    :       0.000480906133
   Orbital Rotation    :       0.000480906133
   Actual Damping      :       0.0000
   Int. Num. El.       :   122.00025566 (UP=   61.00012783 DN=   61.00012783)
   Exchange            :  -104.40936960
   Correlation         :    -4.49828989

               *** Restarting incremental Fock matrix formation ***
==>> SHARK/AuxDens: NDens=1 Thresh =     2.500000e-11 TCut=    2.500000e-12 Lmax=2 LmaxAux=4
    -> Making Hermite density - ok     0.020 sec
    -> Making Aux-basis density - (lmax=2)
    -> L=0 0:    0.066 sec done=   1303213 ( 90.5%) skipped=    137258 
    -> L=1 0:    0.064 sec done=    882498 ( 95.8%) skipped=     38379 
    -> L=1 1:    0.017 sec done=    146942 ( 98.1%) skipped=      2887 
    -> L=2 0:    0.021 sec done=    351544 ( 84.5%) skipped=     64464 
    -> L=2 1:    0.011 sec done=    126299 ( 91.7%) skipped=     11460 
    -> L=2 2:    0.003 sec done=     27066 ( 86.7%) skipped=      4164 
    -> Aux basis density formed in    0.2 sec
    -> Solving linear equations - ok (   0.0 sec)
        Auxbasis Hermite Density:
        P|s>                     ...  0.000
        P|p>                     ...  0.000
        P|d>                     ...  0.000
        P|f>                     ...  0.000
        P|g>                     ...  0.000
        Building the Coulomb matrix: 
        J|ss>                          ... done (  0.0 sec) ndone=  7998285 nskipped1=   169613 nskipped2=   494065
        J|ps>                          ... done (  0.0 sec) ndone=  4942112 nskipped1=    38634 nskipped2=   191969
        J|pp>                          ... done (  0.0 sec) ndone=   798531 nskipped1=     1577 nskipped2=    11790
        J|ds>                          ... done (  0.0 sec) ndone=  1131762 nskipped1=    54300 nskipped2=   124909
        J|dp>                          ... done (  0.0 sec) ndone=   366033 nskipped1=     7230 nskipped2=    21753
        J|dd>                          ... done (  0.0 sec) ndone=    48183 nskipped1=      785 nskipped2=      756
        Coulomb matrix built in   0.1 sec

        Total time for Split-RI-J                ...    0.369 sec
          (0) Prelude                            ...    0.000 sec
          (1) Hermite density                    ...    0.000 sec
          (2) Aux basis density                  ...    0.000 sec (inner=  0.0)
          (3) Linear equation solution           ...    0.000 sec
          (4) J-Matrix construction              ...    0.131 sec (inner=  0.1)
        ---------------------------------------------------------

                         ----------------------------
                         !        ITERATION     7   !
                         ----------------------------
   Total Energy        :    -971.773884882795 Eh
   Energy Change       :      -0.000009779936 Eh
   MAX-DP              :       0.003725071831
   RMS-DP              :       0.000053743515
   Orbital gradient    :       0.000525029335
   Orbital Rotation    :       0.001673289611
   Actual Damping      :       0.0000
   Int. Num. El.       :   122.00025492 (UP=   61.00012746 DN=   61.00012746)
   Exchange            :  -104.41450592
   Correlation         :    -4.49851474

==>> SHARK/AuxDens: NDens=1 Thresh =     2.500000e-11 TCut=    2.500000e-12 Lmax=2 LmaxAux=4
    -> Making Hermite density - ok     0.020 sec
    -> Making Aux-basis density - (lmax=2)
    -> L=0 0:    0.053 sec done=   1053150 ( 73.1%) skipped=    387321 
    -> L=1 0:    0.060 sec done=    804965 ( 87.4%) skipped=    115912 
    -> L=1 1:    0.016 sec done=    141360 ( 94.3%) skipped=      8469 
    -> L=2 0:    0.017 sec done=    285803 ( 68.7%) skipped=    130205 
    -> L=2 1:    0.011 sec done=    117358 ( 85.2%) skipped=     20401 
    -> L=2 2:    0.002 sec done=     21756 ( 69.7%) skipped=      9474 
    -> Aux basis density formed in    0.2 sec
    -> Solving linear equations - ok (   0.0 sec)
[...]
 3 C  dx2y2           5.4       8.1       4.3       7.1       2.7       1.4
 3 C  dxy             0.3       1.2       1.1       2.6       3.9       0.1
 4 C  s               0.0       0.0       0.1       0.1       0.0       0.0
 4 C  pz              0.1       1.3       0.0       1.8       0.3       0.0
 4 C  px              0.6       0.3       1.0       0.5       0.2       2.4
 4 C  py              0.6       0.4       0.8       0.1       0.0       0.0
 4 C  dz2             0.4      14.9       2.2      10.6       6.9       2.8
 4 C  dxz             0.0       0.7       0.3       0.1       0.0       0.8
 4 C  dyz             3.6       0.3       0.8       1.5       0.0       0.3
 4 C  dx2y2           0.3       1.5       2.0       0.6       0.6      11.2
 4 C  dxy             6.2       0.9       9.7       0.5       1.2       7.4
 5 C  s               0.0       0.7       0.1       1.3       0.3       0.1
 5 C  pz              0.0       1.4       0.1       1.3       0.5       0.1
 5 C  dz2             0.0       7.2       0.6       6.9       2.2       0.6
 5 C  dyz             0.2       2.0       0.1       1.1       0.9       0.2
 6 C  s               0.3       0.1       0.3       0.7       0.5       1.7
 6 C  px              0.2       0.0       0.4       0.5       0.4       1.9
 6 C  py              0.0       0.0       0.0       0.1       0.1       0.2
 6 C  dz2             0.2       0.0       0.4       0.9       0.4       2.3
 6 C  dxz             0.1       0.1       0.1       0.0       0.3       0.6
 6 C  dyz             0.0       0.0       0.0       0.1       0.1       0.2
 6 C  dx2y2           0.8       0.0       1.3       1.6       1.7       5.9
 6 C  dxy             0.4       0.2       0.5       0.4       0.4       2.4
 7 C  s               0.4       0.7       1.0       0.1       0.0       0.6
 7 C  pz              0.0       0.1       0.0       0.0       0.0       0.0
 7 C  px              0.2       0.3       0.6       0.0       0.0       0.2
 7 C  py              0.6       0.5       1.0       0.0       0.0       0.3
 7 C  dz2             1.2       1.7       2.2       0.2       0.0       0.3
 7 C  dxz             0.0       0.1       0.3       0.0       0.0       0.1
 7 C  dyz             0.2       0.1       0.2       0.0       0.0       0.3
 7 C  dx2y2           0.5       0.2       1.2       0.1       0.0       0.1
 7 C  dxy             3.1       3.5       5.5       0.1       0.0       2.1
 8 C  s               0.4       0.3       0.1       1.3       0.0       0.4
 8 C  px              0.0       0.1       0.0       0.1       0.0       0.0
 8 C  py              1.0       0.3       0.1       1.2       0.0       0.6
 8 C  dz2             1.1       0.4       0.2       1.2       0.0       0.6
 8 C  dyz             0.6       0.1       0.1       0.8       0.0       0.3
 8 C  dx2y2           5.2       1.2       0.4       5.1       0.0       2.9
 8 C  dxy             0.2       0.6       0.0       1.1       0.0       0.1
 9 C  s               0.2       0.1       0.3       0.7       0.7       1.6
 9 C  pz              0.1       0.2       0.4       0.4       0.7       1.4
 9 C  px              0.0       0.0       0.0       0.1       0.2       0.4
 9 C  dz2             0.0       0.9       1.3       1.7       2.4       6.0
 9 C  dxz             0.4       0.2       0.9       1.1       2.0       3.5
 9 C  dyz             0.0       0.0       0.0       0.0       0.1       0.3
 9 C  dx2y2           0.1       0.0       0.0       0.0       0.0       0.0
10 C  s               1.1       0.0       0.9       0.1       0.5       0.2
10 C  pz              0.6       0.0       0.6       0.0       0.2       0.2
10 C  px              0.4       0.1       0.4       0.0       0.1       0.0
10 C  py              0.7       0.0       0.5       0.0       0.1       0.0
10 C  dz2             0.2       0.0       0.0       0.2       0.0       0.0
10 C  dxz             3.5       0.3       2.9       0.0       0.5       0.5
10 C  dyz             3.7       0.0       3.2       0.0       0.9       0.2
10 C  dxy             2.9       0.3       2.6       0.1       0.5       0.2
11 C  s               0.0       0.3       0.3       0.7       2.2       0.0
11 C  pz              0.0       0.0       0.1       0.3       1.1       0.0
11 C  px              0.1       0.0       0.0       0.1       0.3       0.0
11 C  py              0.0       0.2       0.3       0.2       1.2       0.0
11 C  dz2             0.1       0.1       0.0       0.0       0.0       0.0
11 C  dxz             0.1       0.0       0.3       0.6       2.7       0.0
11 C  dyz             0.1       0.9       1.3       1.5       7.5       0.1
11 C  dx2y2           0.1       0.0       0.2       0.6       1.2       0.0
11 C  dxy             0.2       0.2       0.4       0.3       2.7       0.0
12 C  s               0.2       1.0       0.9       0.1       0.5       0.2
12 C  pz              0.0       0.3       0.3       0.0       0.1       0.0
12 C  py              0.1       1.2       1.2       0.0       0.4       0.1
12 C  dz2             0.0       0.3       0.1       0.1       0.4       0.0
12 C  dxz             0.0       0.2       0.1       0.1       0.0       0.0
12 C  dyz             0.2       4.8       4.5       0.0       1.1       0.2
12 C  dx2y2           0.7       4.5       3.5       0.2       0.7       0.4
12 C  dxy             0.0       0.2       0.6       0.0       0.2       0.1
13 C  s               0.6       0.1       0.1       1.4       0.3       0.1
13 C  px              1.1       0.3       0.1       1.4       0.5       0.1
13 C  dz2             2.2       0.7       0.1       2.4       0.9       0.4
13 C  dxz             0.1       0.2       0.0       0.1       0.0       0.0
13 C  dx2y2           3.7       1.2       0.5       4.9       1.4       0.5
13 C  dxy             0.9       0.4       0.1       1.0       0.4       0.1
14 H  s               0.0       0.0       0.1       0.1       0.0       0.0
16 H  s               0.0       0.1       0.1       0.0       0.0       0.0
19 H  s               0.0       0.0       0.0       0.0       0.0       0.1
21 H  s               0.0       0.1       0.0       0.1       0.0       0.0
24 H  s               0.0       0.0       0.0       0.0       0.2       0.0
26 H  s               0.0       0.0       0.1       0.1       0.0       0.0
28 H  s               0.1       0.0       0.1       0.0       0.0       0.0
31 H  s               0.0       0.0       0.0       0.0       0.0       0.1
33 H  s               0.1       0.0       0.0       0.1       0.0       0.0
36 H  s               0.0       0.0       0.1       0.1       0.0       0.0

                    252       253   
                   2.73403   2.73509
                   0.00000   0.00000
                  --------  --------
 0 C  pz              3.3       2.1
 0 C  px              3.2       2.0
 0 C  py              0.0       2.4
 0 C  dz2            15.9       0.0
 0 C  dxz             4.6       1.9
 0 C  dyz             1.1       8.0
 0 C  dx2y2           2.0      14.4
 0 C  dxy             0.8       0.1
 1 C  s               1.3       0.8
 1 C  px              2.1       1.0
 1 C  py              0.2       1.1
 1 C  dz2             5.4       0.2
 1 C  dxz             1.3       0.0
 1 C  dyz             0.6       0.9
 1 C  dx2y2           1.8      10.3
 1 C  dxy             4.3       0.3
 3 C  s               1.8       0.3
 3 C  pz              2.2       0.7
 3 C  px              0.8       0.4
 3 C  py              0.0       0.3
 3 C  dz2            10.8       0.3
 3 C  dxz             6.2       0.7
 3 C  dyz             0.0       0.7
 3 C  dx2y2           0.0       5.8
 3 C  dxy             0.0       0.5
 4 C  s               0.1       2.0
 4 C  pz              1.1       0.7
 4 C  px              0.1       0.2
 4 C  py              0.1       2.2
 4 C  dz2             4.7       0.5
 4 C  dxz             0.1       1.9
 4 C  dyz             2.1       9.0
 4 C  dx2y2           0.1       2.4
 4 C  dxy             0.5       4.2
 5 C  s               1.0       0.0
 5 C  pz              0.9       0.0
 5 C  dz2             4.5       0.1
 6 C  px              0.0       0.2
 6 C  dz2             0.1       0.3
 6 C  dyz             0.2       0.1
 6 C  dx2y2           0.0       0.2
 6 C  dxy             0.2       0.6
 7 C  s               0.3       0.1
 7 C  py              0.2       0.5
 7 C  dz2             0.0       0.5
 7 C  dyz             0.6       0.2
 7 C  dx2y2           0.2       0.2
 7 C  dxy             0.8       1.2
 8 C  s               0.2       0.7
 8 C  px              0.0       0.1
 8 C  py              0.1       0.6
 8 C  dz2             0.0       0.7
 8 C  dyz             0.5       0.6
 8 C  dx2y2           0.2       1.0
 8 C  dxy             0.1       1.5
 9 C  pz              0.2       0.0
 9 C  dxz             0.8       0.0
 9 C  dx2y2           0.6       0.1
10 C  s               0.3       0.1
10 C  pz              0.1       0.0
10 C  px              0.4       0.0
10 C  py              0.2       0.0
10 C  dxz             1.0       0.0
10 C  dyz             0.8       0.0
10 C  dx2y2           0.2       0.2
10 C  dxy             1.4       0.0
11 C  s               0.0       0.1
11 C  px              0.0       0.1
11 C  dz2             0.1       0.7
11 C  dyz             0.4       0.4
11 C  dx2y2           0.1       0.1
12 C  s               0.0       0.4
12 C  pz              0.1       0.3
12 C  py              0.1       0.3
12 C  dz2             0.0       0.4
12 C  dxz             0.0       0.3
12 C  dyz             0.2       1.5
12 C  dx2y2           0.4       0.5
12 C  dxy             0.0       0.4
13 C  s               0.2       0.7
13 C  px              0.3       0.5
13 C  dz2             0.2       0.4
13 C  dxz             0.4       0.1
13 C  dx2y2           0.9       2.5
15 H  s               0.0       0.1
27 H  s               0.1       0.0


                      *****************************
                      * MAYER POPULATION ANALYSIS *
                      *****************************

  NA   - Mulliken gross atomic population
  ZA   - Total nuclear charge
  QA   - Mulliken gross atomic charge
  VA   - Mayer's total valence
  BVA  - Mayer's bonded valence
  FA   - Mayer's free valence

  ATOM       NA         ZA         QA         VA         BVA        FA
  0 C      6.0862     6.0000    -0.0862     3.7740     3.7740    -0.0000
  1 C      5.8894     6.0000     0.1106     3.8978     3.8978    -0.0000
  2 Cl    17.1177    17.0000    -0.1177     1.1005     1.1005     0.0000
  3 C      5.8904     6.0000     0.1096     3.8987     3.8987    -0.0000
  4 C      5.8909     6.0000     0.1091     3.8995     3.8995     0.0000
  5 C      6.4847     6.0000    -0.4847     3.8097     3.8097     0.0000
  6 C      6.4948     6.0000    -0.4948     3.8161     3.8161     0.0000
  7 C      6.4975     6.0000    -0.4975     3.8171     3.8171     0.0000
  8 C      6.4853     6.0000    -0.4853     3.8106     3.8106     0.0000
  9 C      6.4956     6.0000    -0.4956     3.8167     3.8167    -0.0000
 10 C      6.4986     6.0000    -0.4986     3.8178     3.8178    -0.0000
 11 C      6.4959     6.0000    -0.4959     3.8165     3.8165    -0.0000
 12 C      6.4976     6.0000    -0.4976     3.8173     3.8173    -0.0000
 13 C      6.4846     6.0000    -0.4846     3.8101     3.8101     0.0000
 14 H      0.8371     1.0000     0.1629     0.9361     0.9361     0.0000
 15 H      0.8478     1.0000     0.1522     0.9372     0.9372     0.0000
 16 H      0.8382     1.0000     0.1618     0.9385     0.9385     0.0000
 17 H      0.8233     1.0000     0.1767     0.9330     0.9330     0.0000
 18 H      0.8420     1.0000     0.1580     0.9358     0.9358    -0.0000
 19 H      0.8521     1.0000     0.1479     0.9378     0.9378     0.0000
 20 H      0.8241     1.0000     0.1759     0.9340     0.9340     0.0000
 21 H      0.8585     1.0000     0.1415     0.9384     0.9384     0.0000
 22 H      0.8416     1.0000     0.1584     0.9430     0.9430     0.0000
 23 H      0.8415     1.0000     0.1585     0.9356     0.9356    -0.0000
 24 H      0.8520     1.0000     0.1480     0.9378     0.9378    -0.0000
 25 H      0.8232     1.0000     0.1768     0.9329     0.9329    -0.0000
 26 H      0.8366     1.0000     0.1634     0.9358     0.9358    -0.0000
 27 H      0.8477     1.0000     0.1523     0.9372     0.9372     0.0000
 28 H      0.8376     1.0000     0.1624     0.9381     0.9381    -0.0000
 29 H      0.8234     1.0000     0.1766     0.9329     0.9329    -0.0000
 30 H      0.8417     1.0000     0.1583     0.9356     0.9356     0.0000
 31 H      0.8518     1.0000     0.1482     0.9376     0.9376    -0.0000
 32 H      0.8245     1.0000     0.1755     0.9338     0.9338     0.0000
 33 H      0.8585     1.0000     0.1415     0.9383     0.9383    -0.0000
 34 H      0.8408     1.0000     0.1592     0.9430     0.9430    -0.0000
 35 H      0.8376     1.0000     0.1624     0.9384     0.9384     0.0000
 36 H      0.8370     1.0000     0.1630     0.9358     0.9358    -0.0000
 37 H      0.8478     1.0000     0.1522     0.9372     0.9372    -0.0000
 38 H      0.8241     1.0000     0.1759     0.9341     0.9341    -0.0000
 39 H      0.8584     1.0000     0.1416     0.9384     0.9384     0.0000
 40 H      0.8416     1.0000     0.1584     0.9430     0.9430     0.0000

  Mayer bond orders larger than 0.100000
B(  0-C ,  1-C ) :   0.9207 B(  0-C ,  2-Cl) :   0.9182 B(  0-C ,  3-C ) :   0.9198 
B(  0-C ,  4-C ) :   0.9209 B(  1-C ,  8-C ) :   0.9865 B(  1-C ,  9-C ) :   0.9894 
B(  1-C , 10-C ) :   0.9922 B(  3-C , 11-C ) :   0.9898 B(  3-C , 12-C ) :   0.9919 
B(  3-C , 13-C ) :   0.9875 B(  4-C ,  5-C ) :   0.9871 B(  4-C ,  6-C ) :   0.9897 
B(  4-C ,  7-C ) :   0.9922 B(  5-C , 20-H ) :   0.9263 B(  5-C , 21-H ) :   0.9294 
B(  5-C , 22-H ) :   0.9181 B(  6-C , 17-H ) :   0.9212 B(  6-C , 18-H ) :   0.9139 
B(  6-C , 19-H ) :   0.9262 B(  7-C , 14-H ) :   0.9154 B(  7-C , 15-H ) :   0.9289 
B(  7-C , 16-H ) :   0.9191 B(  8-C , 32-H ) :   0.9269 B(  8-C , 33-H ) :   0.9295 
B(  8-C , 34-H ) :   0.9177 B(  9-C , 29-H ) :   0.9210 B(  9-C , 30-H ) :   0.9138 
B(  9-C , 31-H ) :   0.9260 B( 10-C , 26-H ) :   0.9153 B( 10-C , 27-H ) :   0.9287 
B( 10-C , 28-H ) :   0.9187 B( 11-C , 23-H ) :   0.9137 B( 11-C , 24-H ) :   0.9261 
B( 11-C , 25-H ) :   0.9206 B( 12-C , 35-H ) :   0.9187 B( 12-C , 36-H ) :   0.9158 
B( 12-C , 37-H ) :   0.9288 B( 13-C , 38-H ) :   0.9263 B( 13-C , 39-H ) :   0.9294 
B( 13-C , 40-H ) :   0.9182 

-------
TIMINGS
-------

Total SCF time: 0 days 0 hours 0 min 7 sec 

Total time                  ....       7.085 sec
Sum of individual times     ....       6.701 sec  ( 94.6%)

Fock matrix formation       ....       5.087 sec  ( 71.8%)
  Split-RI-J                ....       2.233 sec  ( 43.9% of F)
  XC integration            ....       2.755 sec  ( 54.2% of F)
    Basis function eval.    ....       1.244 sec  ( 45.2% of XC)
    Density eval.           ....       0.601 sec  ( 21.8% of XC)
    XC-Functional eval.     ....       0.223 sec  (  8.1% of XC)
    XC-Potential eval.      ....       0.367 sec  ( 13.3% of XC)
Diagonalization             ....       0.017 sec  (  0.2%)
Density matrix formation    ....       0.005 sec  (  0.1%)
Population analysis         ....       0.185 sec  (  2.6%)
Initial guess               ....       0.020 sec  (  0.3%)
Orbital Transformation      ....       0.000 sec  (  0.0%)
Orbital Orthonormalization  ....       0.011 sec  (  0.2%)
DIIS solution               ....       0.005 sec  (  0.1%)
SOSCF solution              ....       0.078 sec  (  1.1%)
Grid generation             ....       1.304 sec  ( 18.4%)

Maximum memory used throughout the entire SCF-calculation: 53.5 MB

-------------------------   --------------------
FINAL SINGLE POINT ENERGY      -971.782088317426
-------------------------   --------------------

                                *** OPTIMIZATION RUN DONE ***

                            ***************************************
                            *     ORCA property calculations      *
                            ***************************************

                                    ---------------------
                                    Active property flags
                                    ---------------------
   (+) Dipole Moment


------------------------------------------------------------------------------
                       ORCA ELECTRIC PROPERTIES CALCULATION
------------------------------------------------------------------------------

Dipole Moment Calculation                       ... on
Quadrupole Moment Calculation                   ... off
Polarizability Calculation                      ... off
GBWName                                         ... tBu3CCl_0_1_bp86_6-31gpol.opt.gbw
Electron density                                ... tBu3CCl_0_1_bp86_6-31gpol.opt.scfp
SHARK General Contraction Test:  Segmented basis detected
   -> Pre-screening matrix found on disk - Trying to read with NShells=140
   -> Passing Pre-screening matrix on to SHARK ...ok
   -> Leaving CheckPreScreeningMatrix
----------------------
SHARK INTEGRAL PACKAGE
----------------------

Number of atoms                             ...     41
Number of basis functions                   ...    254
Number of shells                            ...    140
Maximum angular momentum                    ...      2
Integral batch strategy                     ... SHARK/LIBINT Hybrid
RI-J (if used) integral strategy            ... SPLIT-RIJ (Revised 2003 algorithm where possible)
Printlevel                                  ...      2
Contraction scheme used                     ... SEGMENTED contraction
Coulomb Range Separation                    ... NOT USED
Exchange Range Separation                   ... NOT USED
Finite Nucleus Model                        ... NOT USED
Auxiliary Coulomb fitting basis             ... AVAILABLE
   # of basis functions in Aux-J            ...    985
   # of shells in Aux-J                     ...    347
   Maximum angular momentum in Aux-J        ...      4
Auxiliary J/K fitting basis                 ... NOT available
Auxiliary Correlation fitting basis         ... NOT available
Auxiliary 'external' fitting basis          ... NOT available
Integral threshold                          ...     2.500000e-11
Primitive cut-off                           ...     2.500000e-12
Primitive pair pre-selection threshold      ...     2.500000e-12

The origin for moment calculation is the CENTER OF MASS  = (-3.172798,  0.077360 -0.160082)

-------------
DIPOLE MOMENT
-------------
                                X             Y             Z
Electronic contribution:     -6.28327     -11.03216       5.86883
Nuclear contribution   :      6.63217      11.63986      -6.19396
                        -----------------------------------------
Total Dipole Moment    :      0.34890       0.60769      -0.32512
                        -----------------------------------------
Magnitude (a.u.)       :      0.77248
Magnitude (Debye)      :      1.96349



--------------------
Rotational spectrum 
--------------------
 
Rotational constants in cm-1:     0.020971     0.020956     0.017703 
Rotational constants in MHz :   628.684525   628.232051   530.736603 

 Dipole components along the rotational axes: 
x,y,z [a.u.] :     0.001090     0.002432    -0.772475 
x,y,z [Debye]:     0.002771     0.006183    -1.963476 

 

Timings for individual modules:

Sum of individual times         ...      514.354 sec (=   8.573 min)
GTO integral calculation        ...       68.190 sec (=   1.136 min)  13.3 %
SCF iterations                  ...      292.380 sec (=   4.873 min)  56.8 %
SCF Gradient evaluation         ...      150.941 sec (=   2.516 min)  29.3 %
Geometry relaxation             ...        2.842 sec (=   0.047 min)   0.6 %
                             ****ORCA TERMINATED NORMALLY****
TOTAL RUN TIME: 0 days 0 hours 9 minutes 33 seconds 734 msec
