
                                 *****************
                                 * O   R   C   A *
                                 *****************

                                            #,                                       
                                            ###                                      
                                            ####                                     
                                            #####                                    
                                            ######                                   
                                           ########,                                 
                                     ,,################,,,,,                         
                               ,,#################################,,                 
                          ,,##########################################,,             
                       ,#########################################, ''#####,          
                    ,#############################################,,   '####,        
                  ,##################################################,,,,####,       
                ,###########''''           ''''###############################       
              ,#####''   ,,,,##########,,,,          '''####'''          '####       
            ,##' ,,,,###########################,,,                        '##       
           ' ,,###''''                  '''############,,,                           
         ,,##''                                '''############,,,,        ,,,,,,###''
      ,#''                                            '''#######################'''  
     '                                                          ''''####''''         
             ,#######,   #######,   ,#######,      ##                                
            ,#'     '#,  ##    ##  ,#'     '#,    #''#        ######   ,####,        
            ##       ##  ##   ,#'  ##            #'  '#       #        #'  '#        
            ##       ##  #######   ##           ,######,      #####,   #    #        
            '#,     ,#'  ##    ##  '#,     ,#' ,#      #,         ##   #,  ,#        
             '#######'   ##     ##  '#######'  #'      '#     #####' # '####'        



                  #######################################################
                  #                        -***-                        #
                  #          Department of theory and spectroscopy      #
                  #    Directorship and core code : Frank Neese         #
                  #        Max Planck Institute fuer Kohlenforschung    #
                  #                Kaiser Wilhelm Platz 1               #
                  #                 D-45470 Muelheim/Ruhr               #
                  #                      Germany                        #
                  #                                                     #
                  #                  All rights reserved                #
                  #                        -***-                        #
                  #######################################################


                         Program Version 5.0.2 -  RELEASE  -


 With contributions from (in alphabetic order):
   Daniel Aravena         : Magnetic Suceptibility
   Michael Atanasov       : Ab Initio Ligand Field Theory (pilot matlab implementation)
   Alexander A. Auer      : GIAO ZORA, VPT2 properties, NMR spectrum
   Ute Becker             : Parallelization
   Giovanni Bistoni       : ED, misc. LED, open-shell LED, HFLD
   Martin Brehm           : Molecular dynamics
   Dmytro Bykov           : SCF Hessian
   Vijay G. Chilkuri      : MRCI spin determinant printing, contributions to CSF-ICE
   Dipayan Datta          : RHF DLPNO-CCSD density
   Achintya Kumar Dutta   : EOM-CC, STEOM-CC
   Dmitry Ganyushin       : Spin-Orbit,Spin-Spin,Magnetic field MRCI
   Miquel Garcia          : C-PCM and meta-GGA Hessian, CC/C-PCM, Gaussian charge scheme
   Yang Guo               : DLPNO-NEVPT2, F12-NEVPT2, CIM, IAO-localization
   Andreas Hansen         : Spin unrestricted coupled pair/coupled cluster methods
   Benjamin Helmich-Paris : MC-RPA, TRAH-SCF, COSX integrals
   Lee Huntington         : MR-EOM, pCC
   Robert Izsak           : Overlap fitted RIJCOSX, COSX-SCS-MP3, EOM
   Marcus Kettner         : VPT2
   Christian Kollmar      : KDIIS, OOCD, Brueckner-CCSD(T), CCSD density, CASPT2, CASPT2-K
   Simone Kossmann        : Meta GGA functionals, TD-DFT gradient, OOMP2, MP2 Hessian
   Martin Krupicka        : Initial AUTO-CI
   Lucas Lang             : DCDCAS
   Marvin Lechner         : AUTO-CI (C++ implementation), FIC-MRCC
   Dagmar Lenk            : GEPOL surface, SMD
   Dimitrios Liakos       : Extrapolation schemes; Compound Job, initial MDCI parallelization
   Dimitrios Manganas     : Further ROCIS development; embedding schemes
   Dimitrios Pantazis     : SARC Basis sets
   Anastasios Papadopoulos: AUTO-CI, single reference methods and gradients
   Taras Petrenko         : DFT Hessian,TD-DFT gradient, ASA, ECA, R-Raman, ABS, FL, XAS/XES, NRVS
   Peter Pinski           : DLPNO-MP2, DLPNO-MP2 Gradient
   Christoph Reimann      : Effective Core Potentials
   Marius Retegan         : Local ZFS, SOC
   Christoph Riplinger    : Optimizer, TS searches, QM/MM, DLPNO-CCSD(T), (RO)-DLPNO pert. Triples
   Tobias Risthaus        : Range-separated hybrids, TD-DFT gradient, RPA, STAB
   Michael Roemelt        : Original ROCIS implementation
   Masaaki Saitow         : Open-shell DLPNO-CCSD energy and density
   Barbara Sandhoefer     : DKH picture change effects
   Avijit Sen             : IP-ROCIS
   Kantharuban Sivalingam : CASSCF convergence, NEVPT2, FIC-MRCI
   Bernardo de Souza      : ESD, SOC TD-DFT
   Georgi Stoychev        : AutoAux, RI-MP2 NMR, DLPNO-MP2 response
   Willem Van den Heuvel  : Paramagnetic NMR
   Boris Wezisla          : Elementary symmetry handling
   Frank Wennmohs         : Technical directorship


 We gratefully acknowledge several colleagues who have allowed us to
 interface, adapt or use parts of their codes:
   Stefan Grimme, W. Hujo, H. Kruse, P. Pracht,  : VdW corrections, initial TS optimization,
                  C. Bannwarth, S. Ehlert          DFT functionals, gCP, sTDA/sTD-DF
   Ed Valeev, F. Pavosevic, A. Kumar             : LibInt (2-el integral package), F12 methods
   Garnet Chan, S. Sharma, J. Yang, R. Olivares  : DMRG
   Ulf Ekstrom                                   : XCFun DFT Library
   Mihaly Kallay                                 : mrcc  (arbitrary order and MRCC methods)
   Jiri Pittner, Ondrej Demel                    : Mk-CCSD
   Frank Weinhold                                : gennbo (NPA and NBO analysis)
   Christopher J. Cramer and Donald G. Truhlar   : smd solvation model
   Lars Goerigk                                  : TD-DFT with DH, B97 family of functionals
   V. Asgeirsson, H. Jonsson                     : NEB implementation
   FAccTs GmbH                                   : IRC, NEB, NEB-TS, DLPNO-Multilevel, CI-OPT
                                                   MM, QMMM, 2- and 3-layer-ONIOM, Crystal-QMMM,
                                                   LR-CPCM, SF, NACMEs, symmetry and pop. for TD-DFT,
                                                   nearIR, NL-DFT gradient (VV10), updates on ESD,
                                                   ML-optimized integration grids
   S Lehtola, MJT Oliveira, MAL Marques          : LibXC Library
   Liviu Ungur et al                             : ANISO software


 Your calculation uses the libint2 library for the computation of 2-el integrals
 For citations please refer to: http://libint.valeyev.net

 Your ORCA version has been built with support for libXC version: 5.1.0
 For citations please refer to: https://tddft.org/programs/libxc/

 This ORCA versions uses:
   CBLAS   interface :  Fast vector & matrix operations
   LAPACKE interface :  Fast linear algebra routines
   SCALAPACK package :  Parallel linear algebra routines
   Shared memory     :  Shared parallel matrices
   BLAS/LAPACK       :  OpenBLAS 0.3.15  USE64BITINT DYNAMIC_ARCH NO_AFFINITY SkylakeX SINGLE_THREADED
        Core in use  :  SkylakeX
   Copyright (c) 2011-2014, The OpenBLAS Project




***************************************
The coordinates will be read from file: tBu3CCl.xyz
***************************************


Preparing ONIOM calculation             ...         done
Warning: More than one link atom for QM atom 1. Please be aware of what you are doing!
Warning: More than one link atom for QM atom 1. Please be aware of what you are doing!
Warning: More than one link atom for QM atom 3. Please be aware of what you are doing!
Warning: More than one link atom for QM atom 3. Please be aware of what you are doing!
Warning: More than one link atom for QM atom 4. Please be aware of what you are doing!
Warning: More than one link atom for QM atom 4. Please be aware of what you are doing!
================================================================================

----- Orbital basis set information -----
Your calculation utilizes the basis: 6-31G*
   H-He, Li-Ne : W. J. Hehre, R. Ditchfield and J.A. Pople, J. Chem. Phys. 56, 2257 (1972).
                 Note: He and Ne are unpublished basis sets taken from the Gaussian program.
                 Note: Li and B from J. D. Dill and J. A. Pople, J. Chem. Phys. 62, 2921 (1975).
   Na - Ar     : M. M. Francl, W. J. Pietro, W. J. Hehre, J. S. Binkley, M. S. Gordon, 
                 D. J. DeFrees and J. A. Pople, J. Chem. Phys. 77, 3654 (1982).
   K - Zn      : V. A. Rassolov, J. A. Pople, M. A. Ratner, and T. L. Windus, J. Chem. Phys. 109, 1223 (1998).

----- AuxJ basis set information -----
Your calculation utilizes the auxiliary basis: def2/J
   F. Weigend, Phys. Chem. Chem. Phys. 8, 1057 (2006).

================================================================================
                                        WARNINGS
                       Please study these warnings very carefully!
================================================================================


WARNING: Geometry Optimization
  ===> : Switching off AutoStart
         For restart on a previous wavefunction, please use MOREAD

INFO   : the flag for use of the SHARK integral package has been found!

================================================================================
                                       INPUT FILE
================================================================================
NAME = tBu3CCl_0_1_bp86_xtb_6-31gpol.opt.inp
|  1> !qm/xtb rks ri bp86 6-31g* tightscf opt
|  2> !normalprint
|  3> !pal8
|  4> 
|  5> %scf
|  6>   maxiter 500
|  7> end
|  8> 
|  9> %qmmm
| 10>   qmatoms { 0 1 2 3 4 } end
| 11> end
| 12> 
| 13> *xyzfile 0 1 tBu3CCl.xyz
| 14> 
| 15>                          ****END OF INPUT****
================================================================================

------------------------------------------------------------------------------

                             **************************
                             *    2-layered ONIOM     *
                             **************************


------------------------------------------------------------------------------




Multiscale model                       ... QM1/QM2
QM2 method                             ... XTB2
Coupling Scheme                        ... subtractive
Embedding Scheme                       ... electrostatic
PrintLevel                             ... 1
Method for determining QM2 charges     ... Hirshfeld
Charge of total system                 ... 0
Charge alteration scheme               ... Charge shifting
Scaling factor for CS scheme           ... 0.06
Gradient projection scheme             ... Lever rule
Scaling factor for QM2 charges         ... 1.00
AutoFF method                          ... XTB2
Point charges in QM calc. from MM atoms... 36
              from charge shift scheme ... 81
Skip double counting of LA terms       ... YES
Skip double counting of LA terms (bond)... YES
Printing trajectories, xyz and allxyz files:
        QMMMRegion                     ... YES
        activeRegion                   ... YES
        activeRegionExt                ... NO
        qmRegion                       ... YES
        qm2Region                      ... NO
Parameter files:
        ORCA Forcefield Filename       ... tBu3CCl_0_1_bp86_xtb_6-31gpol.opt_L_QM2.ORCAFF.prms.tmp
        QM-LA bond distances Filename  ... tBu3CCl_0_1_bp86_xtb_6-31gpol.opt.H_DIST.prms.tmp
Forcefield type                        ... ORCA
Size of different subsystems (in atoms):
Size of QMMM System                    ... 41
Size of QM2 Subsystem                  ... 36
Size of QM1 Subsystem                  ... 5
Number of link atoms                   ... 9
Size of QM1 Subsystem plus link atoms  ... 14
Size of region for optimizer           ... 41
        optimized atoms = activeRegion ... 41
        fixed atoms (distance cutoff)  ... 0 ( 1.0)
Composition of different systems (atoms start counting at 0):
QM1 Subsystem                          ...   0   1   2   3   4 
Active atoms                           ... All atoms 

                       *****************************
                       * Geometry Optimization Run *
                       *****************************

Geometry optimization settings:
Update method            Update   .... BFGS
Choice of coordinates    CoordSys .... Z-matrix Internals
Initial Hessian          InHess   .... Almoef's Model

Convergence Tolerances:
Energy Change            TolE     ....  5.0000e-06 Eh
Max. Gradient            TolMAXG  ....  3.0000e-04 Eh/bohr
RMS Gradient             TolRMSG  ....  1.0000e-04 Eh/bohr
Max. Displacement        TolMAXD  ....  4.0000e-03 bohr
RMS Displacement         TolRMSD  ....  2.0000e-03 bohr
Strict Convergence                ....  False
------------------------------------------------------------------------------
                        ORCA OPTIMIZATION COORDINATE SETUP
------------------------------------------------------------------------------

The optimization will be done in new redundant internal coordinates
Making redundant internal coordinates   ...  (new redundants) done
Evaluating the initial hessian          ...  (Almloef) done
Evaluating the coordinates              ...  done
Calculating the B-matrix                .... done
Calculating the G-matrix                .... done
Diagonalizing the G-matrix              .... done
Small eigenvalue found = 1.218e-02
Small eigenvalue found = 1.218e-02
The first mode is                       ....  109
The number of degrees of freedom        ....  117

    -----------------------------------------------------------------
                    Redundant Internal Coordinates


    -----------------------------------------------------------------
         Definition                    Initial Value    Approx d2E/dq
    -----------------------------------------------------------------
      1. B(C   1,C   0)                  1.6813         0.214298   
      2. B(Cl  2,C   0)                  1.8697         0.240674   
      3. B(C   3,C   0)                  1.6813         0.214291   
      4. B(C   4,C   0)                  1.6813         0.214279   
      5. B(C   5,C   4)                  1.5671         0.325950   
      6. B(C   6,C   4)                  1.5519         0.344739   
      7. B(C   7,C   4)                  1.5461         0.352119   
      8. B(C   8,C   1)                  1.5671         0.325956   
      9. B(C   9,C   1)                  1.5519         0.344740   
     10. B(C  10,C   1)                  1.5461         0.352119   
     11. B(C  11,C   3)                  1.5519         0.344736   
     12. B(C  12,C   3)                  1.5461         0.352124   
     13. B(C  13,C   3)                  1.5671         0.325955   
     14. B(H  14,C   7)                  1.0909         0.358931   
     15. B(H  15,C   7)                  1.0979         0.349828   
     16. B(H  16,C   7)                  1.0889         0.361538   
     17. B(H  17,C   6)                  1.0940         0.354858   
     18. B(H  18,C   6)                  1.0902         0.359885   
     19. B(H  19,C   6)                  1.0985         0.349086   
     20. B(H  20,C   5)                  1.0934         0.355587   
     21. B(H  21,C   5)                  1.0990         0.348334   
     22. B(H  22,C   5)                  1.0855         0.366135   
     23. B(H  23,C  11)                  1.0902         0.359886   
     24. B(H  24,C  11)                  1.0985         0.349084   
     25. B(H  25,C  11)                  1.0940         0.354858   
     26. B(H  26,C  10)                  1.0909         0.358935   
     27. B(H  27,C  10)                  1.0979         0.349828   
     28. B(H  28,C  10)                  1.0889         0.361535   
     29. B(H  29,C   9)                  1.0940         0.354860   
     30. B(H  30,C   9)                  1.0902         0.359881   
     31. B(H  31,C   9)                  1.0985         0.349086   
     32. B(H  32,C   8)                  1.0934         0.355580   
     33. B(H  33,C   8)                  1.0990         0.348335   
     34. B(H  34,C   8)                  1.0855         0.366143   
     35. B(H  35,C  12)                  1.0889         0.361532   
     36. B(H  36,C  12)                  1.0909         0.358933   
     37. B(H  37,C  12)                  1.0979         0.349829   
     38. B(H  38,C  13)                  1.0934         0.355572   
     39. B(H  39,C  13)                  1.0990         0.348334   
     40. B(H  40,C  13)                  1.0855         0.366153   
     41. A(Cl  2,C   0,C   4)          104.3601         0.320637   
     42. A(C   1,C   0,C   3)          114.0627         0.302327   
     43. A(C   1,C   0,C   4)          114.0622         0.302325   
     44. A(C   1,C   0,Cl  2)          104.3604         0.320642   
     45. A(C   3,C   0,C   4)          114.0632         0.302323   
     46. A(Cl  2,C   0,C   3)          104.3590         0.320640   
     47. A(C   0,C   1,C   8)          115.1662         0.323572   
     48. A(C   8,C   1,C   9)          101.6878         0.350221   
     49. A(C   0,C   1,C  10)          113.8256         0.327707   
     50. A(C   0,C   1,C   9)          113.5534         0.326565   
     51. A(C   8,C   1,C  10)          105.6074         0.351476   
     52. A(C   9,C   1,C  10)          105.8059         0.354826   
     53. A(C  11,C   3,C  12)          105.8059         0.354826   
     54. A(C   0,C   3,C  11)          113.5552         0.326563   
     55. A(C   0,C   3,C  13)          115.1658         0.323569   
     56. A(C   0,C   3,C  12)          113.8253         0.327705   
     57. A(C  12,C   3,C  13)          105.6084         0.351477   
     58. A(C  11,C   3,C  13)          101.6854         0.350220   
     59. A(C   0,C   4,C   5)          115.1666         0.323566   
     60. A(C   0,C   4,C   7)          113.8262         0.327702   
     61. A(C   6,C   4,C   7)          105.8067         0.354826   
     62. A(C   5,C   4,C   7)          105.6049         0.351475   
     63. A(C   0,C   4,C   6)          113.5532         0.326560   
     64. A(C   5,C   4,C   6)          101.6884         0.350220   
     65. A(H  20,C   5,H  21)          105.6055         0.288756   
     66. A(H  21,C   5,H  22)          104.0456         0.290082   
     67. A(H  20,C   5,H  22)          108.4029         0.291023   
     68. A(C   4,C   5,H  22)          114.7925         0.318026   
     69. A(C   4,C   5,H  21)          110.4253         0.315457   
     70. A(C   4,C   5,H  20)          112.8269         0.316516   
     71. A(C   4,C   6,H  17)          111.7905         0.319313   
     72. A(H  18,C   6,H  19)          104.2457         0.289398   
     73. A(H  17,C   6,H  19)          105.9121         0.288761   
     74. A(C   4,C   6,H  19)          111.4197         0.318460   
     75. A(H  17,C   6,H  18)          110.4631         0.290143   
     76. A(C   4,C   6,H  18)          112.5585         0.320048   
     77. A(C   4,C   7,H  16)          113.1495         0.321399   
     78. A(H  14,C   7,H  15)          105.4957         0.289374   
     79. A(C   4,C   7,H  15)          110.7941         0.319673   
     80. A(H  15,C   7,H  16)          106.1565         0.289703   
     81. A(C   4,C   7,H  14)          112.5730         0.321019   
     82. A(H  14,C   7,H  16)          108.1911         0.290873   
     83. A(C   1,C   8,H  33)          110.4251         0.315458   
     84. A(C   1,C   8,H  32)          112.8248         0.316516   
     85. A(H  33,C   8,H  34)          104.0476         0.290084   
     86. A(H  32,C   8,H  34)          108.4017         0.291023   
     87. A(C   1,C   8,H  34)          114.7943         0.318028   
     88. A(H  32,C   8,H  33)          105.6056         0.288756   
     89. A(H  30,C   9,H  31)          104.2457         0.289398   
     90. A(C   1,C   9,H  31)          111.4198         0.318460   
     91. A(H  29,C   9,H  30)          110.4637         0.290143   
     92. A(C   1,C   9,H  30)          112.5570         0.320047   
     93. A(C   1,C   9,H  29)          111.7911         0.319314   
     94. A(H  29,C   9,H  31)          105.9123         0.288761   
     95. A(H  27,C  10,H  28)          106.1567         0.289702   
     96. A(H  26,C  10,H  28)          108.1904         0.290873   
     97. A(C   1,C  10,H  28)          113.1485         0.321399   
     98. A(H  26,C  10,H  27)          105.4961         0.289375   
     99. A(C   1,C  10,H  27)          110.7940         0.319674   
    100. A(C   1,C  10,H  26)          112.5742         0.321019   
    101. A(H  24,C  11,H  25)          105.9117         0.288761   
    102. A(H  23,C  11,H  25)          110.4630         0.290143   
    103. A(C   3,C  11,H  25)          111.7904         0.319313   
    104. A(H  23,C  11,H  24)          104.2464         0.289398   
    105. A(C   3,C  11,H  24)          111.4187         0.318459   
    106. A(C   3,C  11,H  23)          112.5592         0.320047   
    107. A(H  36,C  12,H  37)          105.4955         0.289374   
    108. A(H  35,C  12,H  37)          106.1565         0.289702   
    109. A(C   3,C  12,H  37)          110.7947         0.319674   
    110. A(H  35,C  12,H  36)          108.1919         0.290872   
    111. A(C   3,C  12,H  36)          112.5735         0.321020   
    112. A(C   3,C  12,H  35)          113.1478         0.321399   
    113. A(H  39,C  13,H  40)          104.0499         0.290085   
    114. A(H  38,C  13,H  40)          108.4001         0.291023   
    115. A(C   3,C  13,H  40)          114.7965         0.318030   
    116. A(H  38,C  13,H  39)          105.6055         0.288754   
    117. A(C   3,C  13,H  39)          110.4243         0.315458   
    118. A(C   3,C  13,H  38)          112.8229         0.316514   
    119. D(C   9,C   1,C   0,C   3)    173.9592         0.004428   
    120. D(C  10,C   1,C   0,C   3)     52.8071         0.004428   
    121. D(C  10,C   1,C   0,C   4)    -80.6996         0.004428   
    122. D(C   8,C   1,C   0,C   4)    157.1307         0.004428   
    123. D(C   9,C   1,C   0,Cl  2)    -72.7947         0.004428   
    124. D(C   8,C   1,C   0,C   3)    -69.3626         0.004428   
    125. D(C   8,C   1,C   0,Cl  2)     43.8836         0.004428   
    126. D(C   9,C   1,C   0,C   4)     40.4525         0.004428   
    127. D(C  10,C   1,C   0,Cl  2)    166.0532         0.004428   
    128. D(C  12,C   3,C   0,C   4)     52.8008         0.004428   
    129. D(C  12,C   3,C   0,Cl  2)    166.0476         0.004428   
    130. D(C  11,C   3,C   0,C   1)     40.4478         0.004428   
    131. D(C  11,C   3,C   0,C   4)    173.9540         0.004428   
    132. D(C  11,C   3,C   0,Cl  2)    -72.7992         0.004428   
    133. D(C  13,C   3,C   0,Cl  2)     43.8771         0.004428   
    134. D(C  13,C   3,C   0,C   4)    -69.3698         0.004428   
    135. D(C  13,C   3,C   0,C   1)    157.1240         0.004428   
    136. D(C  12,C   3,C   0,C   1)    -80.7054         0.004428   
    137. D(C   5,C   4,C   0,C   3)    157.1381         0.004428   
    138. D(C   7,C   4,C   0,C   1)     52.8118         0.004428   
    139. D(C   7,C   4,C   0,Cl  2)    166.0592         0.004428   
    140. D(C   6,C   4,C   0,Cl  2)    -72.7873         0.004428   
    141. D(C   6,C   4,C   0,C   1)    173.9653         0.004428   
    142. D(C   6,C   4,C   0,C   3)     40.4589         0.004428   
    143. D(C   7,C   4,C   0,C   3)    -80.6946         0.004428   
    144. D(C   5,C   4,C   0,C   1)    -69.3554         0.004428   
    145. D(C   5,C   4,C   0,Cl  2)     43.8919         0.004428   
    146. D(H  20,C   5,C   4,C   7)    175.3146         0.008674   
    147. D(H  20,C   5,C   4,C   6)     65.0358         0.008674   
    148. D(H  21,C   5,C   4,C   0)   -176.1160         0.008674   
    149. D(H  20,C   5,C   4,C   0)    -58.1983         0.008674   
    150. D(H  22,C   5,C   4,C   7)    -59.8151         0.008674   
    151. D(H  22,C   5,C   4,C   6)   -170.0938         0.008674   
    152. D(H  22,C   5,C   4,C   0)     66.6720         0.008674   
    153. D(H  21,C   5,C   4,C   7)     57.3969         0.008674   
    154. D(H  21,C   5,C   4,C   6)    -52.8819         0.008674   
    155. D(H  19,C   6,C   4,C   7)    -63.1374         0.009599   
    156. D(H  19,C   6,C   4,C   5)     46.9871         0.009599   
    157. D(H  19,C   6,C   4,C   0)    171.3134         0.009599   
    158. D(H  18,C   6,C   4,C   7)     53.5550         0.009599   
    159. D(H  18,C   6,C   4,C   5)    163.6795         0.009599   
    160. D(H  18,C   6,C   4,C   0)    -71.9942         0.009599   
    161. D(H  17,C   6,C   4,C   7)    178.5686         0.009599   
    162. D(H  17,C   6,C   4,C   5)    -71.3069         0.009599   
    163. D(H  17,C   6,C   4,C   0)     53.0194         0.009599   
    164. D(H  16,C   7,C   4,C   6)    -72.7890         0.009980   
    165. D(H  16,C   7,C   4,C   5)    179.8929         0.009980   
    166. D(H  16,C   7,C   4,C   0)     52.5921         0.009980   
    167. D(H  15,C   7,C   4,C   6)     46.2941         0.009980   
    168. D(H  15,C   7,C   4,C   5)    -61.0240         0.009980   
    169. D(H  15,C   7,C   4,C   0)    171.6752         0.009980   
    170. D(H  14,C   7,C   4,C   6)    164.1568         0.009980   
    171. D(H  14,C   7,C   4,C   5)     56.8387         0.009980   
    172. D(H  14,C   7,C   4,C   0)    -70.4621         0.009980   
    173. D(H  34,C   8,C   1,C   9)   -170.1234         0.008674   
    174. D(H  34,C   8,C   1,C   0)     66.6429         0.008674   
    175. D(H  33,C   8,C   1,C  10)     57.3705         0.008674   
    176. D(H  33,C   8,C   1,C   9)    -52.9079         0.008674   
    177. D(H  33,C   8,C   1,C   0)   -176.1416         0.008674   
    178. D(H  32,C   8,C   1,C  10)    175.2867         0.008674   
    179. D(H  32,C   8,C   1,C   9)     65.0083         0.008674   
    180. D(H  34,C   8,C   1,C  10)    -59.8450         0.008674   
    181. D(H  32,C   8,C   1,C   0)    -58.2254         0.008674   
    182. D(H  31,C   9,C   1,C  10)    -63.1547         0.009599   
    183. D(H  31,C   9,C   1,C   0)    171.2973         0.009599   
    184. D(H  30,C   9,C   1,C  10)     53.5368         0.009599   
    185. D(H  30,C   9,C   1,C   8)    163.6634         0.009599   
    186. D(H  30,C   9,C   1,C   0)    -72.0112         0.009599   
    187. D(H  29,C   9,C   1,C  10)    178.5506         0.009599   
    188. D(H  31,C   9,C   1,C   8)     46.9720         0.009599   
    189. D(H  29,C   9,C   1,C   8)    -71.3227         0.009599   
    190. D(H  29,C   9,C   1,C   0)     53.0026         0.009599   
    191. D(H  28,C  10,C   1,C   9)    -72.7876         0.009980   
    192. D(H  28,C  10,C   1,C   8)    179.8943         0.009980   
    193. D(H  28,C  10,C   1,C   0)     52.5927         0.009980   
    194. D(H  27,C  10,C   1,C   9)     46.2950         0.009980   
    195. D(H  27,C  10,C   1,C   8)    -61.0231         0.009980   
    196. D(H  27,C  10,C   1,C   0)    171.6753         0.009980   
    197. D(H  26,C  10,C   1,C   9)    164.1589         0.009980   
    198. D(H  26,C  10,C   1,C   8)     56.8408         0.009980   
    199. D(H  26,C  10,C   1,C   0)    -70.4608         0.009980   
    200. D(H  25,C  11,C   3,C  13)    -71.3093         0.009599   
    201. D(H  25,C  11,C   3,C  12)    178.5639         0.009599   
    202. D(H  25,C  11,C   3,C   0)     53.0151         0.009599   
    203. D(H  24,C  11,C   3,C  13)     46.9835         0.009599   
    204. D(H  24,C  11,C   3,C  12)    -63.1433         0.009599   
    205. D(H  24,C  11,C   3,C   0)    171.3079         0.009599   
    206. D(H  23,C  11,C   3,C  13)    163.6766         0.009599   
    207. D(H  23,C  11,C   3,C  12)     53.5498         0.009599   
    208. D(H  23,C  11,C   3,C   0)    -71.9990         0.009599   
    209. D(H  37,C  12,C   3,C  13)    -61.0298         0.009980   
    210. D(H  37,C  12,C   3,C  11)     46.2860         0.009980   
    211. D(H  37,C  12,C   3,C   0)    171.6685         0.009980   
    212. D(H  36,C  12,C   3,C  13)     56.8335         0.009980   
    213. D(H  36,C  12,C   3,C  11)    164.1493         0.009980   
    214. D(H  36,C  12,C   3,C   0)    -70.4683         0.009980   
    215. D(H  35,C  12,C   3,C  13)    179.8878         0.009980   
    216. D(H  35,C  12,C   3,C  11)    -72.7964         0.009980   
    217. D(H  35,C  12,C   3,C   0)     52.5860         0.009980   
    218. D(H  40,C  13,C   3,C  12)    -59.8741         0.008674   
    219. D(H  40,C  13,C   3,C   0)     66.6140         0.008674   
    220. D(H  39,C  13,C   3,C  12)     57.3453         0.008674   
    221. D(H  39,C  13,C   3,C  11)    -52.9325         0.008674   
    222. D(H  39,C  13,C   3,C   0)   -176.1666         0.008674   
    223. D(H  38,C  13,C   3,C  12)    175.2597         0.008674   
    224. D(H  40,C  13,C   3,C  11)   -170.1518         0.008674   
    225. D(H  38,C  13,C   3,C  11)     64.9819         0.008674   
    226. D(H  38,C  13,C   3,C   0)    -58.2522         0.008674   
    -----------------------------------------------------------------

Number of atoms                         .... 41
Number of degrees of freedom            .... 226

         *************************************************************
         *                GEOMETRY OPTIMIZATION CYCLE   1            *
         *************************************************************
                    ************************************                      
                    *       QM/   XTB2 SP Energy       *                      
                    ************************************                      


------------------------------------------------------------------------------
                          XTB2 - FULL SYSTEM                         
------------------------------------------------------------------------------
Running XTB calculation
---------------------------------
CARTESIAN COORDINATES (ANGSTROEM)
---------------------------------
  C    -1.729647   -0.049290   -0.035591
  C    -0.090201   -0.416135    0.030348
  Cl   -2.566769   -1.523405    0.753032
  C    -2.358320    0.002818   -1.594050
  C    -2.180345    1.251732    0.929292
  C    -2.110946    0.991986    2.473180
  C    -3.662537    1.674205    0.747874
  C    -1.345199    2.529651    0.684587
  C     0.280340   -1.885901   -0.367576
  C     0.510792   -0.315835    1.457596
  C     0.789031    0.490505   -0.861495
  C    -1.818078   -1.120416   -2.518593
  C    -2.078740    1.330007   -2.336224
  C    -3.906268   -0.219288   -1.695967
  H    -0.320581    2.436089    1.047125
  H    -1.771458    3.383655    1.227097
  H    -1.309520    2.823602   -0.363295
  H    -4.344512    0.828498    0.876354
  H    -3.842875    2.167517   -0.207414
  H    -3.961977    2.419133    1.497556
  H    -2.735260    0.152281    2.790551
  H    -2.485784    1.864676    3.026176
  H    -1.109819    0.841961    2.864965
  H    -0.778299   -0.962085   -2.805377
  H    -2.360404   -1.149568   -3.473392
  H    -1.944904   -2.110686   -2.071269
  H     0.645917    0.296819   -1.925462
  H     1.854896    0.308849   -0.671053
  H     0.626281    1.552528   -0.684403
  H    -0.058837   -0.907124    2.180586
  H     0.606762    0.714885    1.799454
  H     1.536445   -0.707790    1.489433
  H    -0.219441   -2.632794    0.255303
  H     1.356940   -2.060202   -0.231760
  H     0.102610   -2.134041   -1.409249
  H    -1.025295    1.605678   -2.338151
  H    -2.648790    2.165945   -1.928454
  H    -2.377511    1.257621   -3.390184
  H    -4.225918   -1.176844   -1.275812
  H    -4.222601   -0.237833   -2.748338
  H    -4.509162    0.567406   -1.253406

----------------------------
CARTESIAN COORDINATES (A.U.)
----------------------------
  NO LB    ZA    FRAG    MASS        X           Y           Z
   0 C   6.0000    0    12.011   -3.268559   -0.093144   -0.067258
   1 C   6.0000    0    12.011   -0.170455   -0.786381    0.057350
   2 Cl 17.0000    0    35.453   -4.850490   -2.878819    1.423025
   3 C   6.0000    0    12.011   -4.456579    0.005326   -3.012318
   4 C   6.0000    0    12.011   -4.120255    2.365430    1.756108
   5 C   6.0000    0    12.011   -3.989110    1.874581    4.673633
   6 C   6.0000    0    12.011   -6.921192    3.163789    1.413277
   7 C   6.0000    0    12.011   -2.542058    4.780349    1.293682
   8 C   6.0000    0    12.011    0.529766   -3.563836   -0.694618
   9 C   6.0000    0    12.011    0.965258   -0.596842    2.754457
  10 C   6.0000    0    12.011    1.491052    0.926920   -1.627989
  11 C   6.0000    0    12.011   -3.435669   -2.117279   -4.759451
  12 C   6.0000    0    12.011   -3.928250    2.513348   -4.414824
  13 C   6.0000    0    12.011   -7.381776   -0.414393   -3.204914
  14 H   1.0000    0     1.008   -0.605810    4.603541    1.978779
  15 H   1.0000    0     1.008   -3.347570    6.394181    2.318878
  16 H   1.0000    0     1.008   -2.474634    5.335834   -0.686528
  17 H   1.0000    0     1.008   -8.209938    1.565634    1.656069
  18 H   1.0000    0     1.008   -7.261982    4.096013   -0.391956
  19 H   1.0000    0     1.008   -7.487052    4.571499    2.829970
  20 H   1.0000    0     1.008   -5.168893    0.287769    5.273376
  21 H   1.0000    0     1.008   -4.697451    3.523726    5.718643
  22 H   1.0000    0     1.008   -2.097254    1.591075    5.413999
  23 H   1.0000    0     1.008   -1.470772   -1.818076   -5.301394
  24 H   1.0000    0     1.008   -4.460517   -2.172368   -6.563760
  25 H   1.0000    0     1.008   -3.675335   -3.988618   -3.914132
  26 H   1.0000    0     1.008    1.220605    0.560906   -3.638597
  27 H   1.0000    0     1.008    3.505246    0.583640   -1.268106
  28 H   1.0000    0     1.008    1.183500    2.933852   -1.293334
  29 H   1.0000    0     1.008   -0.111185   -1.714216    4.120711
  30 H   1.0000    0     1.008    1.146614    1.350937    3.400476
  31 H   1.0000    0     1.008    2.903460   -1.337529    2.814621
  32 H   1.0000    0     1.008   -0.414683   -4.975259    0.482452
  33 H   1.0000    0     1.008    2.564245   -3.893217   -0.437963
  34 H   1.0000    0     1.008    0.193904   -4.032754   -2.663095
  35 H   1.0000    0     1.008   -1.937526    3.034291   -4.418465
  36 H   1.0000    0     1.008   -5.005488    4.093043   -3.644249
  37 H   1.0000    0     1.008   -4.492844    2.376559   -6.406519
  38 H   1.0000    0     1.008   -7.985828   -2.223913   -2.410936
  39 H   1.0000    0     1.008   -7.979560   -0.449440   -5.193607
  40 H   1.0000    0     1.008   -8.521081    1.072241   -2.368593

---------------------------------   --------------------
FINAL SINGLE POINT ENERGY (L-QM2)      -46.119144266080
---------------------------------   --------------------
------------------------------------------------------------------------------
                                  XTB2 - SMALL SYSTEM                         
------------------------------------------------------------------------------
Running XTB calculation
---------------------------------
CARTESIAN COORDINATES (ANGSTROEM)
---------------------------------
  C    -1.729647   -0.049290   -0.035591
  C    -0.090201   -0.416135    0.030348
  Cl   -2.566769   -1.523405    0.753032
  C    -2.358320    0.002818   -1.594050
  C    -2.180345    1.251732    0.929292
  H     0.171240   -1.453153   -0.250414
  H     0.336086   -0.344992    1.042699
  H     0.535214    0.228775   -0.604037
  H    -1.976072   -0.791924   -2.248209
  H    -2.159941    0.944539   -2.120667
  H    -3.447800   -0.153505   -1.665782
  H    -2.131380    1.068464    2.018604
  H    -3.231666    1.551393    0.800612
  H    -1.586290    2.160740    0.755229

----------------------------
CARTESIAN COORDINATES (A.U.)
----------------------------
  NO LB    ZA    FRAG    MASS        X           Y           Z
   0 C   6.0000    0    12.011   -3.268559   -0.093144   -0.067258
   1 C   6.0000    0    12.011   -0.170455   -0.786381    0.057350
   2 Cl 17.0000    0    35.453   -4.850490   -2.878819    1.423025
   3 C   6.0000    0    12.011   -4.456579    0.005326   -3.012318
   4 C   6.0000    0    12.011   -4.120255    2.365430    1.756108
   5 H   1.0000    0     1.008    0.323597   -2.746061   -0.473213
   6 H   1.0000    0     1.008    0.635110   -0.651940    1.970416
   7 H   1.0000    0     1.008    1.011407    0.432323   -1.141464
   8 H   1.0000    0     1.008   -3.734235   -1.496520   -4.248500
   9 H   1.0000    0     1.008   -4.081697    1.784920   -4.007481
  10 H   1.0000    0     1.008   -6.515398   -0.290082   -3.147871
  11 H   1.0000    0     1.008   -4.027724    2.019105    3.814609
  12 H   1.0000    0     1.008   -6.106964    2.931707    1.512938
  13 H   1.0000    0     1.008   -2.997654    4.083206    1.427176

---------------------------------   --------------------
FINAL SINGLE POINT ENERGY (S-QM2)      -17.664707723840
---------------------------------   --------------------
------------------------------------------------------------------------------
                                QM - SMALL SYSTEM                           
------------------------------------------------------------------------------
---------------------------------
CARTESIAN COORDINATES (ANGSTROEM)
---------------------------------
  C     -1.729647   -0.049290   -0.035591
  C     -0.090201   -0.416135    0.030348
  Cl    -2.566769   -1.523405    0.753032
  C     -2.358320    0.002818   -1.594050
  C     -2.180345    1.251732    0.929292
  H      0.171240   -1.453153   -0.250414
  H      0.336086   -0.344992    1.042699
  H      0.535214    0.228775   -0.604037
  H     -1.976072   -0.791924   -2.248209
  H     -2.159941    0.944539   -2.120667
  H     -3.447800   -0.153505   -1.665782
  H     -2.131380    1.068464    2.018604
  H     -3.231666    1.551393    0.800612
  H     -1.586290    2.160740    0.755229

----------------------------
CARTESIAN COORDINATES (A.U.)
----------------------------
  NO LB      ZA    FRAG     MASS         X           Y           Z
   0 C     6.0000    0    12.011   -3.268559   -0.093144   -0.067258
   1 C     6.0000    0    12.011   -0.170455   -0.786381    0.057350
   2 Cl   17.0000    0    35.453   -4.850490   -2.878819    1.423025
   3 C     6.0000    0    12.011   -4.456579    0.005326   -3.012318
   4 C     6.0000    0    12.011   -4.120255    2.365430    1.756108
   5 H     1.0000    0     1.008    0.323597   -2.746061   -0.473213
   6 H     1.0000    0     1.008    0.635110   -0.651940    1.970416
   7 H     1.0000    0     1.008    1.011407    0.432323   -1.141464
   8 H     1.0000    0     1.008   -3.734235   -1.496520   -4.248500
   9 H     1.0000    0     1.008   -4.081697    1.784920   -4.007481
  10 H     1.0000    0     1.008   -6.515398   -0.290082   -3.147871
  11 H     1.0000    0     1.008   -4.027724    2.019105    3.814609
  12 H     1.0000    0     1.008   -6.106964    2.931707    1.512938
  13 H     1.0000    0     1.008   -2.997654    4.083206    1.427176

--------------------------------
INTERNAL COORDINATES (ANGSTROEM)
--------------------------------
 C      0   0   0     0.000000000000     0.00000000     0.00000000
 C      1   0   0     1.681281111597     0.00000000     0.00000000
 Cl     1   2   0     1.869683800585   104.36038448     0.00000000
 C      1   2   3     1.681290609572   114.06266846   246.75386360
 C      1   2   3     1.681304848576   114.06222116   113.24715335
 H      2   1   3     1.096982027112   115.16615071    43.88356550
 H      2   1   3     1.086306324415   113.55336424   287.20532505
 H      2   1   3     1.082270647362   113.82555895   166.05322997
 H      4   1   2     1.086308158202   113.55518037    40.44778717
 H      4   1   2     1.082268008418   113.82528278   279.29455648
 H      4   1   2     1.096982876965   115.16584408   157.12399857
 H      5   1   2     1.096985811386   115.16663311   290.64458690
 H      5   1   2     1.086306641355   113.55317355   173.96533314
 H      5   1   2     1.082270817341   113.82618639    52.81181306

---------------------------
INTERNAL COORDINATES (A.U.)
---------------------------
 C      0   0   0     0.000000000000     0.00000000     0.00000000
 C      1   0   0     3.177160855053     0.00000000     0.00000000
 Cl     1   2   0     3.533190340134   104.36038448     0.00000000
 C      1   2   3     3.177178803625   114.06266846   246.75386360
 C      1   2   3     3.177205711443   114.06222116   113.24715335
 H      2   1   3     2.072995605076   115.16615071    43.88356550
 H      2   1   3     2.052821450691   113.55336424   287.20532505
 H      2   1   3     2.045195126295   113.82555895   166.05322997
 H      4   1   2     2.052824916047   113.55518037    40.44778717
 H      4   1   2     2.045190139415   113.82528278   279.29455648
 H      4   1   2     2.072997211065   115.16584408   157.12399857
 H      5   1   2     2.073002756317   115.16663311   290.64458690
 H      5   1   2     2.052822049620   113.55317355   173.96533314
 H      5   1   2     2.045195447509   113.82618639    52.81181306

---------------------
BASIS SET INFORMATION
---------------------
There are 3 groups of distinct atoms

 Group   1 Type C   : 10s4p1d contracted to 3s2p1d pattern {631/31/1}
 Group   2 Type Cl  : 16s10p1d contracted to 4s3p1d pattern {6631/631/1}
 Group   3 Type H   : 4s contracted to 2s pattern {31}

Atom   0C    basis set group =>   1
Atom   1C    basis set group =>   1
Atom   2Cl   basis set group =>   2
Atom   3C    basis set group =>   1
Atom   4C    basis set group =>   1
Atom   5H    basis set group =>   3
Atom   6H    basis set group =>   3
Atom   7H    basis set group =>   3
Atom   8H    basis set group =>   3
Atom   9H    basis set group =>   3
Atom  10H    basis set group =>   3
Atom  11H    basis set group =>   3
Atom  12H    basis set group =>   3
Atom  13H    basis set group =>   3
---------------------------------
AUXILIARY/J BASIS SET INFORMATION
---------------------------------
There are 3 groups of distinct atoms

 Group   1 Type C   : 12s5p4d2f1g contracted to 6s4p3d1f1g pattern {711111/2111/211/2/1}
 Group   2 Type Cl  : 14s5p5d2f1g contracted to 8s4p3d1f1g pattern {71111111/2111/311/2/1}
 Group   3 Type H   : 5s2p1d contracted to 3s1p1d pattern {311/2/1}

Atom   0C    basis set group =>   1
Atom   1C    basis set group =>   1
Atom   2Cl   basis set group =>   2
Atom   3C    basis set group =>   1
Atom   4C    basis set group =>   1
Atom   5H    basis set group =>   3
Atom   6H    basis set group =>   3
Atom   7H    basis set group =>   3
Atom   8H    basis set group =>   3
Atom   9H    basis set group =>   3
Atom  10H    basis set group =>   3
Atom  11H    basis set group =>   3
Atom  12H    basis set group =>   3
Atom  13H    basis set group =>   3


           ************************************************************
           *        Program running with 8 parallel MPI-processes     *
           *              working on a common directory               *
           ************************************************************
------------------------------------------------------------------------------
                           ORCA GTO INTEGRAL CALCULATION
                           -- RI-GTO INTEGRALS CHOSEN --
------------------------------------------------------------------------------
------------------------------------------------------------------------------
                   ___                                                        
                  /   \      - P O W E R E D   B Y -                         
                 /     \                                                     
                 |  |  |   _    _      __       _____    __    __             
                 |  |  |  | |  | |    /  \     |  _  \  |  |  /  |          
                  \  \/   | |  | |   /    \    | | | |  |  | /  /          
                 / \  \   | |__| |  /  /\  \   | |_| |  |  |/  /          
                |  |  |   |  __  | /  /__\  \  |    /   |      \           
                |  |  |   | |  | | |   __   |  |    \   |  |\   \          
                \     /   | |  | | |  |  |  |  | |\  \  |  | \   \       
                 \___/    |_|  |_| |__|  |__|  |_| \__\ |__|  \__/        
                                                                              
                      - O R C A' S   B I G   F R I E N D -                    
                                      &                                       
                       - I N T E G R A L  F E E D E R -                       
                                                                              
 v1 FN, 2020, v2 2021                                                         
------------------------------------------------------------------------------


Reading SHARK input file tBu3CCl_0_1_bp86_xtb_6-31gpol.opt.SHARKINP.tmp ... SHARK General Contraction Test:  Segmented basis detected
   -> Pre-screening matrix *NOT* found on disk - recalculating with NShells=50
   -> Leaving CheckPreScreeningMatrix
ok
----------------------
SHARK INTEGRAL PACKAGE
----------------------

Number of atoms                             ...     14
Number of basis functions                   ...     92
Number of shells                            ...     50
Maximum angular momentum                    ...      2
Integral batch strategy                     ... SHARK/LIBINT Hybrid
RI-J (if used) integral strategy            ... SPLIT-RIJ (Revised 2003 algorithm where possible)
Printlevel                                  ...      2
Contraction scheme used                     ... SEGMENTED contraction
Coulomb Range Separation                    ... NOT USED
Exchange Range Separation                   ... NOT USED
Finite Nucleus Model                        ... NOT USED
Auxiliary Coulomb fitting basis             ... AVAILABLE
   # of basis functions in Aux-J            ...    346
   # of shells in Aux-J                     ...    122
   Maximum angular momentum in Aux-J        ...      4
Auxiliary J/K fitting basis                 ... NOT available
Auxiliary Correlation fitting basis         ... NOT available
Auxiliary 'external' fitting basis          ... NOT available
Integral threshold                          ...     2.500000e-11
Primitive cut-off                           ...     2.500000e-12
Primitive pair pre-selection threshold      ...     2.500000e-12

Calculating pre-screening integrals         ... done (  0.0 sec) Dimension = 50
Organizing shell pair data                  ... done (  0.0 sec)
Shell pair information
Total number of shell pairs                 ...      1275
Shell pairs after pre-screening             ...      1250
Total number of primitive shell pairs       ...      7788
Primitive shell pairs kept                  ...      5282
          la=0 lb=0:    573 shell pairs
          la=1 lb=0:    371 shell pairs
          la=1 lb=1:     66 shell pairs
          la=2 lb=0:    170 shell pairs
          la=2 lb=1:     55 shell pairs
          la=2 lb=2:     15 shell pairs

Reading point charge file                   ... ok (117 point charges)
Calculating one electron integrals          ... done (  0.0 sec)
Calculating RI/J V-Matrix + Cholesky decomp.... done (  0.0 sec)
Calculating Nuclear repulsion               ... (+Point charges) done (  0.0 sec) ENN=    227.438810545920 Eh

SHARK setup successfully completed in   0.3 seconds

Maximum memory used throughout the entire GTOINT-calculation: 11.1 MB
ENUC WAS=  0.000000000
ENUC IS =  0.000000000


           ************************************************************
           *        Program running with 8 parallel MPI-processes     *
           *              working on a common directory               *
           ************************************************************
-------------------------------------------------------------------------------
                                 ORCA SCF
-------------------------------------------------------------------------------

------------
SCF SETTINGS
------------
Hamiltonian:
 Density Functional     Method          .... DFT(GTOs)
 Exchange Functional    Exchange        .... B88
   X-Alpha parameter    XAlpha          ....  0.666667
   Becke's b parameter  XBeta           ....  0.004200
 Correlation Functional Correlation     .... P86
 LDA part of GGA corr.  LDAOpt          .... PW91-LDA
 Gradients option       PostSCFGGA      .... off
   Density functional embedding theory  .... OFF
   NL short-range parameter             ....  4.400000
 RI-approximation to the Coulomb term is turned on
   Number of AuxJ basis functions       .... 346


General Settings:
 Integral files         IntName         .... tBu3CCl_0_1_bp86_xtb_6-31gpol.opt
 Hartree-Fock type      HFTyp           .... RHF
 Total Charge           Charge          ....    0
 Multiplicity           Mult            ....    1
 Number of Electrons    NEL             ....   50
 Basis Dimension        Dim             ....   92
 Nuclear Repulsion      ENuc            ....    227.4388105459 Eh

Convergence Acceleration:
 DIIS                   CNVDIIS         .... on
   Start iteration      DIISMaxIt       ....    12
   Startup error        DIISStart       ....  0.200000
   # of expansion vecs  DIISMaxEq       ....     5
   Bias factor          DIISBfac        ....   1.050
   Max. coefficient     DIISMaxC        ....  10.000
 Trust-Rad. Augm. Hess. CNVTRAH         .... auto
   Auto Start mean grad. ratio tolernc. ....  1.125000
   Auto Start start iteration           ....    20
   Auto Start num. interpolation iter.  ....    10
   Max. Number of Micro iterations      ....    16
   Max. Number of Macro iterations      .... Maxiter - #DIIS iter
   Number of Davidson start vectors     ....     2
   Converg. threshold I  (grad. norm)   ....   1.000e-05
   Converg. threshold II (energy diff.) ....   1.000e-08
   Grad. Scal. Fac. for Micro threshold ....   0.100
   Minimum threshold for Micro iter.    ....   0.010
   NR start threshold (gradient norm)   ....   0.001
   Initial trust radius                 ....   0.400
   Minimum AH scaling param. (alpha)    ....   1.000
   Maximum AH scaling param. (alpha)    .... 1000.000
   Orbital update algorithm             .... Taylor
   White noise on init. David. guess    .... on
   Maximum white noise                  ....   0.010
   Quad. conv. algorithm                .... NR
 SOSCF                  CNVSOSCF        .... on
   Start iteration      SOSCFMaxIt      ....   150
   Startup grad/error   SOSCFStart      ....  0.003300
 Level Shifting         CNVShift        .... on
   Level shift para.    LevelShift      ....    0.2500
   Turn off err/grad.   ShiftErr        ....    0.0010
 Zerner damping         CNVZerner       .... off
 Static damping         CNVDamp         .... on
   Fraction old density DampFac         ....    0.7000
   Max. Damping (<1)    DampMax         ....    0.9800
   Min. Damping (>=0)   DampMin         ....    0.0000
   Turn off err/grad.   DampErr         ....    0.1000
 Fernandez-Rico         CNVRico         .... off

SCF Procedure:
 Maximum # iterations   MaxIter         ....   500
 SCF integral mode      SCFMode         .... Direct
   Integral package                     .... SHARK and LIBINT hybrid scheme
 Reset frequency        DirectResetFreq ....    20
 Integral Threshold     Thresh          ....  2.500e-11 Eh
 Primitive CutOff       TCut            ....  2.500e-12 Eh

Convergence Tolerance:
 Convergence Check Mode ConvCheckMode   .... Total+1el-Energy
 Convergence forced     ConvForced      .... 0
 Energy Change          TolE            ....  1.000e-08 Eh
 1-El. energy change                    ....  1.000e-05 Eh
 Orbital Gradient       TolG            ....  1.000e-05
 Orbital Rotation angle TolX            ....  1.000e-05
 DIIS Error             TolErr          ....  5.000e-07


Diagonalization of the overlap matrix:
Smallest eigenvalue                        ... 9.037e-03
Time for diagonalization                   ...    0.020 sec
Threshold for overlap eigenvalues          ... 1.000e-08
Number of eigenvalues below threshold      ... 0
Time for construction of square roots      ...    0.004 sec
Total time needed                          ...    0.025 sec

SHARK General Contraction Test:  Segmented basis detected
   -> Pre-screening matrix found on disk - Trying to read with NShells=50
   -> Passing Pre-screening matrix on to SHARK ...ok
   -> Leaving CheckPreScreeningMatrix
----------------------
SHARK INTEGRAL PACKAGE
----------------------

Number of atoms                             ...     14
Number of basis functions                   ...     92
Number of shells                            ...     50
Maximum angular momentum                    ...      2
Integral batch strategy                     ... SHARK/LIBINT Hybrid
RI-J (if used) integral strategy            ... SPLIT-RIJ (Revised 2003 algorithm where possible)
Printlevel                                  ...      2
Contraction scheme used                     ... SEGMENTED contraction
Coulomb Range Separation                    ... NOT USED
Exchange Range Separation                   ... NOT USED
Finite Nucleus Model                        ... NOT USED
Auxiliary Coulomb fitting basis             ... AVAILABLE
   # of basis functions in Aux-J            ...    346
   # of shells in Aux-J                     ...    122
   Maximum angular momentum in Aux-J        ...      4
Auxiliary J/K fitting basis                 ... NOT available
Auxiliary Correlation fitting basis         ... NOT available
Auxiliary 'external' fitting basis          ... NOT available
Integral threshold                          ...     2.500000e-11
Primitive cut-off                           ...     2.500000e-12
Primitive pair pre-selection threshold      ...     2.500000e-12

Time for model grid setup =    0.088 sec

------------------------------
INITIAL GUESS: MODEL POTENTIAL
------------------------------
Loading Hartree-Fock densities                     ... done
Calculating cut-offs                               ... done
Initializing the effective Hamiltonian             ... done
Setting up the integral package (SHARK)            ... done
Starting the Coulomb interaction                   ...     -> Generating integrals - 
    -> L=0 0 :     0.006 sec done=     58930 skipped=       722 prim-skipped=         0
    -> L=1 0 :     0.003 sec done=     38631 skipped=       101 prim-skipped=         0
    -> L=1 1 :     0.002 sec done=      6930 skipped=         0 prim-skipped=         0
    -> L=2 0 :     0.001 sec done=     17790 skipped=        48 prim-skipped=         0
    -> L=2 1 :     0.001 sec done=      5775 skipped=         0 prim-skipped=         0
    -> L=2 2 :     0.001 sec done=      1575 skipped=         0 prim-skipped=         0
done (   0.0 sec)
Reading the grid                                   ... done
Mapping shells                                     ... done
Starting the XC term evaluation                    ... done (   0.0 sec)
  promolecular density results
     # of electrons  =     49.995233141
     EX              =    -50.627660595
     EC              =     -1.891583366
     EX+EC           =    -52.519243961
Transforming the Hamiltonian                       ... done (   0.0 sec)
Diagonalizing the Hamiltonian                      ... done (   0.0 sec)
Back transforming the eigenvectors                 ... done (   0.0 sec)
Now organizing SCF variables                       ... done
                      ------------------
                      INITIAL GUESS DONE (   0.1 sec)
                      ------------------
-------------------
DFT GRID GENERATION
-------------------

General Integration Accuracy     IntAcc      ... 4.388
Radial Grid Type                 RadialGrid  ... OptM3 with GC (2021)
Angular Grid (max. ang.)         AngularGrid ... 4 (Lebedev-302)
Angular grid pruning method      GridPruning ... 4 (adaptive)
Weight generation scheme         WeightScheme... Becke
Basis function cutoff            BFCut       ... 1.0000e-11
Integration weight cutoff        WCut        ... 1.0000e-14
Angular grids for H and He will be reduced by one unit
Partially contracted basis set               ... off
Rotationally invariant grid construction     ... off

Total number of grid points                  ...    60595
Total number of batches                      ...      954
Average number of points per batch           ...       63
Average number of grid points per atom       ...     4328
Time for grid setup =    0.327 sec

--------------
SCF ITERATIONS
--------------
               ***  Starting incremental Fock matrix formation  ***
==>> SHARK/AuxDens: NDens=1 Thresh =     2.500000e-11 TCut=    2.500000e-12 Lmax=2 LmaxAux=4
    -> Making Hermite density - ok     0.004 sec
    -> Making Aux-basis density - (lmax=2)
    -> L=0 0:    0.006 sec done=     66114 ( 94.6%) skipped=      3789 
    -> L=1 0:    0.006 sec done=     44893 ( 99.2%) skipped=       358 
    -> L=1 1:    0.005 sec done=      8052 (100.0%) skipped=         0 
    -> L=2 0:    0.005 sec done=     20373 ( 98.2%) skipped=       367 
    -> L=2 1:    0.001 sec done=      6710 (100.0%) skipped=         0 
    -> L=2 2:    0.000 sec done=      1830 (100.0%) skipped=         0 
    -> Aux basis density formed in    0.0 sec
    -> Solving linear equations - ok (   0.0 sec)
        Auxbasis Hermite Density:
        P|s>                     ...  0.000
        P|p>                     ...  0.000
        P|d>                     ...  0.000
        P|f>                     ...  0.000
        P|g>                     ...  0.000
        Building the Coulomb matrix: 
        J|ss>                          ... done (  0.0 sec) ndone=   491782 nskipped1=     6140 nskipped2=    24364
        J|ps>                          ... done (  0.0 sec) ndone=   317549 nskipped1=      714 nskipped2=    10408
        J|pp>                          ... done (  0.0 sec) ndone=    61818 nskipped1=        0 nskipped2=     1362
        J|ds>                          ... done (  0.0 sec) ndone=    77155 nskipped1=      384 nskipped2=     8006
        J|dp>                          ... done (  0.0 sec) ndone=    25008 nskipped1=        0 nskipped2=      342
        J|dd>                          ... done (  0.0 sec) ndone=     2925 nskipped1=        0 nskipped2=        0
        Coulomb matrix built in   0.0 sec

        Total time for Split-RI-J                ...    0.071 sec
          (0) Prelude                            ...    0.000 sec
          (1) Hermite density                    ...    0.000 sec
          (2) Aux basis density                  ...    0.000 sec (inner=  0.0)
          (3) Linear equation solution           ...    0.000 sec
          (4) J-Matrix construction              ...    0.033 sec (inner=  0.0)
        ---------------------------------------------------------

                         ----------------------------
                         !        ITERATION     0   !
                         ----------------------------
   Total Energy        :    -617.903305696700 Eh
   Energy Change       :    -617.903305696700 Eh
   MAX-DP              :       0.054613220056
   RMS-DP              :       0.002795535428
   Actual Damping      :       0.7000
   Actual Level Shift  :       0.2500 Eh
   Int. Num. El.       :    49.99997171 (UP=   24.99998585 DN=   24.99998585)
   Exchange            :   -51.70562427
   Correlation         :    -1.91021566

==>> SHARK/AuxDens: NDens=1 Thresh =     2.500000e-11 TCut=    2.500000e-12 Lmax=2 LmaxAux=4
    -> Making Hermite density - ok     0.003 sec
    -> Making Aux-basis density - (lmax=2)
    -> L=0 0:    0.005 sec done=     64352 ( 92.1%) skipped=      5551 
    -> L=1 0:    0.004 sec done=     44487 ( 98.3%) skipped=       764 
    -> L=1 1:    0.002 sec done=      8052 (100.0%) skipped=         0 
    -> L=2 0:    0.001 sec done=     19343 ( 93.3%) skipped=      1397 
    -> L=2 1:    0.001 sec done=      6710 (100.0%) skipped=         0 
    -> L=2 2:    0.000 sec done=      1830 (100.0%) skipped=         0 
    -> Aux basis density formed in    0.0 sec
    -> Solving linear equations - ok (   0.0 sec)
        Auxbasis Hermite Density:
        P|s>                     ...  0.000
        P|p>                     ...  0.000
        P|d>                     ...  0.000
        P|f>                     ...  0.000
        P|g>                     ...  0.000
        Building the Coulomb matrix: 
        J|ss>                          ... done (  0.0 sec) ndone=   482548 nskipped1=    15107 nskipped2=    17974
        J|ps>                          ... done (  0.0 sec) ndone=   316105 nskipped1=     1919 nskipped2=    10061
        J|pp>                          ... done (  0.0 sec) ndone=    61818 nskipped1=        0 nskipped2=     1362
        J|ds>                          ... done (  0.0 sec) ndone=    75431 nskipped1=     2278 nskipped2=     6846
        J|dp>                          ... done (  0.0 sec) ndone=    25008 nskipped1=        0 nskipped2=      342
        J|dd>                          ... done (  0.0 sec) ndone=     2925 nskipped1=        0 nskipped2=        0
        Coulomb matrix built in   0.0 sec

        Total time for Split-RI-J                ...    0.040 sec
          (0) Prelude                            ...    0.000 sec
          (1) Hermite density                    ...    0.000 sec
          (2) Aux basis density                  ...    0.000 sec (inner=  0.0)
          (3) Linear equation solution           ...    0.000 sec
          (4) J-Matrix construction              ...    0.011 sec (inner=  0.0)
        ---------------------------------------------------------

                         ----------------------------
                         !        ITERATION     1   !
                         ----------------------------
   Total Energy        :    -617.969819891937 Eh
   Energy Change       :      -0.066514195237 Eh
   MAX-DP              :       0.035248460247
   RMS-DP              :       0.002031666490
   Actual Damping      :       0.7000
   Actual Level Shift  :       0.2500 Eh
   Int. Num. El.       :    49.99997372 (UP=   24.99998686 DN=   24.99998686)
   Exchange            :   -51.50515800
   Correlation         :    -1.90281899

==>> SHARK/AuxDens: NDens=1 Thresh =     2.500000e-11 TCut=    2.500000e-12 Lmax=2 LmaxAux=4
    -> Making Hermite density - ok     0.003 sec
    -> Making Aux-basis density - (lmax=2)
    -> L=0 0:    0.005 sec done=     64225 ( 91.9%) skipped=      5678 
    -> L=1 0:    0.004 sec done=     44273 ( 97.8%) skipped=       978 
    -> L=1 1:    0.002 sec done=      8052 (100.0%) skipped=         0 
    -> L=2 0:    0.001 sec done=     18921 ( 91.2%) skipped=      1819 
    -> L=2 1:    0.001 sec done=      6710 (100.0%) skipped=         0 
    -> L=2 2:    0.000 sec done=      1830 (100.0%) skipped=         0 
    -> Aux basis density formed in    0.0 sec
    -> Solving linear equations - ok (   0.0 sec)
        Auxbasis Hermite Density:
        P|s>                     ...  0.000
        P|p>                     ...  0.000
        P|d>                     ...  0.000
        P|f>                     ...  0.000
        P|g>                     ...  0.000
        Building the Coulomb matrix: 
        J|ss>                          ... done (  0.0 sec) ndone=   481197 nskipped1=    16254 nskipped2=    17143
        J|ps>                          ... done (  0.0 sec) ndone=   315933 nskipped1=     2109 nskipped2=    10022
        J|pp>                          ... done (  0.0 sec) ndone=    61818 nskipped1=        0 nskipped2=     1362
        J|ds>                          ... done (  0.0 sec) ndone=    75341 nskipped1=     2330 nskipped2=     6636
        J|dp>                          ... done (  0.0 sec) ndone=    25008 nskipped1=        0 nskipped2=      342
        J|dd>                          ... done (  0.0 sec) ndone=     2925 nskipped1=        0 nskipped2=        0
        Coulomb matrix built in   0.0 sec

        Total time for Split-RI-J                ...    0.037 sec
          (0) Prelude                            ...    0.000 sec
          (1) Hermite density                    ...    0.000 sec
          (2) Aux basis density                  ...    0.000 sec (inner=  0.0)
          (3) Linear equation solution           ...    0.000 sec
          (4) J-Matrix construction              ...    0.011 sec (inner=  0.0)
        ---------------------------------------------------------
                               ***Turning on DIIS***

                         ----------------------------
                         !        ITERATION     2   !
                         ----------------------------
   Total Energy        :    -617.992367846120 Eh
   Energy Change       :      -0.022547954183 Eh
   MAX-DP              :       0.045757052695
   RMS-DP              :       0.003249024912
   Actual Damping      :       0.0000
   Actual Level Shift  :       0.2500 Eh
   Int. Num. El.       :    49.99997560 (UP=   24.99998780 DN=   24.99998780)
   Exchange            :   -51.37008877
   Correlation         :    -1.89806097
   DIIS-Error          :       0.019299173023

==>> SHARK/AuxDens: NDens=1 Thresh =     2.500000e-11 TCut=    2.500000e-12 Lmax=2 LmaxAux=4
    -> Making Hermite density - ok     0.003 sec
    -> Making Aux-basis density - (lmax=2)
    -> L=0 0:    0.004 sec done=     64074 ( 91.7%) skipped=      5829 
    -> L=1 0:    0.004 sec done=     44323 ( 97.9%) skipped=       928 
    -> L=1 1:    0.002 sec done=      8052 (100.0%) skipped=         0 
    -> L=2 0:    0.001 sec done=     19311 ( 93.1%) skipped=      1429 
    -> L=2 1:    0.001 sec done=      6710 (100.0%) skipped=         0 
    -> L=2 2:    0.000 sec done=      1830 (100.0%) skipped=         0 
    -> Aux basis density formed in    0.0 sec
    -> Solving linear equations - ok (   0.0 sec)
        Auxbasis Hermite Density:
        P|s>                     ...  0.000
        P|p>                     ...  0.000
        P|d>                     ...  0.000
        P|f>                     ...  0.000
        P|g>                     ...  0.000
        Building the Coulomb matrix: 
        J|ss>                          ... done (  0.0 sec) ndone=   482036 nskipped1=    15164 nskipped2=    16890
        J|ps>                          ... done (  0.0 sec) ndone=   316191 nskipped1=     1795 nskipped2=    10005
        J|pp>                          ... done (  0.0 sec) ndone=    61818 nskipped1=        0 nskipped2=     1362
        J|ds>                          ... done (  0.0 sec) ndone=    75694 nskipped1=     1908 nskipped2=     6695
        J|dp>                          ... done (  0.0 sec) ndone=    25008 nskipped1=        0 nskipped2=      342
        J|dd>                          ... done (  0.0 sec) ndone=     2925 nskipped1=        0 nskipped2=        0
        Coulomb matrix built in   0.0 sec

        Total time for Split-RI-J                ...    0.037 sec
          (0) Prelude                            ...    0.000 sec
          (1) Hermite density                    ...    0.000 sec
          (2) Aux basis density                  ...    0.000 sec (inner=  0.0)
          (3) Linear equation solution           ...    0.000 sec
          (4) J-Matrix construction              ...    0.011 sec (inner=  0.0)
        ---------------------------------------------------------

                         ----------------------------
                         !        ITERATION     3   !
                         ----------------------------
   Total Energy        :    -618.024346268780 Eh
   Energy Change       :      -0.031978422659 Eh
   MAX-DP              :       0.023101085509
   RMS-DP              :       0.001284723801
   Actual Damping      :       0.0000
   Actual Level Shift  :       0.2500 Eh
   Int. Num. El.       :    49.99997833 (UP=   24.99998917 DN=   24.99998917)
   Exchange            :   -51.17155332
   Correlation         :    -1.89268357
   DIIS-Error          :       0.042866319723
   DIIS coefficients:
      0.70326   0.29674

==>> SHARK/AuxDens: NDens=1 Thresh =     2.500000e-11 TCut=    2.500000e-12 Lmax=2 LmaxAux=4
    -> Making Hermite density - ok     0.003 sec
    -> Making Aux-basis density - (lmax=2)
    -> L=0 0:    0.005 sec done=     64090 ( 91.7%) skipped=      5813 
    -> L=1 0:    0.004 sec done=     44261 ( 97.8%) skipped=       990 
    -> L=1 1:    0.002 sec done=      8052 (100.0%) skipped=         0 
    -> L=2 0:    0.001 sec done=     18401 ( 88.7%) skipped=      2339 
    -> L=2 1:    0.001 sec done=      6709 (100.0%) skipped=         1 
    -> L=2 2:    0.000 sec done=      1830 (100.0%) skipped=         0 
    -> Aux basis density formed in    0.0 sec
    -> Solving linear equations - ok (   0.0 sec)
        Auxbasis Hermite Density:
        P|s>                     ...  0.000
        P|p>                     ...  0.000
        P|d>                     ...  0.000
        P|f>                     ...  0.000
        P|g>                     ...  0.000
        Building the Coulomb matrix: 
        J|ss>                          ... done (  0.0 sec) ndone=   479399 nskipped1=    17909 nskipped2=    16638
        J|ps>                          ... done (  0.0 sec) ndone=   314925 nskipped1=     2795 nskipped2=     9833
        J|pp>                          ... done (  0.0 sec) ndone=    61818 nskipped1=        0 nskipped2=     1362
        J|ds>                          ... done (  0.0 sec) ndone=    74586 nskipped1=     2964 nskipped2=     6448
        J|dp>                          ... done (  0.0 sec) ndone=    24942 nskipped1=       30 nskipped2=      342
        J|dd>                          ... done (  0.0 sec) ndone=     2925 nskipped1=        0 nskipped2=        0
        Coulomb matrix built in   0.0 sec

        Total time for Split-RI-J                ...    0.037 sec
          (0) Prelude                            ...    0.000 sec
          (1) Hermite density                    ...    0.000 sec
          (2) Aux basis density                  ...    0.000 sec (inner=  0.0)
          (3) Linear equation solution           ...    0.000 sec
          (4) J-Matrix construction              ...    0.011 sec (inner=  0.0)
        ---------------------------------------------------------

                         ----------------------------
                         !        ITERATION     4   !
                         ----------------------------
   Total Energy        :    -618.035321364506 Eh
   Energy Change       :      -0.010975095726 Eh
   MAX-DP              :       0.008139084155
   RMS-DP              :       0.000551789775
   Actual Damping      :       0.0000
   Actual Level Shift  :       0.2500 Eh
   Int. Num. El.       :    49.99997680 (UP=   24.99998840 DN=   24.99998840)
   Exchange            :   -51.24353208
   Correlation         :    -1.89590754
   DIIS-Error          :       0.010450009740
   DIIS coefficients:
      0.25509  -0.06487   0.80978

==>> SHARK/AuxDens: NDens=1 Thresh =     2.500000e-11 TCut=    2.500000e-12 Lmax=2 LmaxAux=4
    -> Making Hermite density - ok     0.003 sec
    -> Making Aux-basis density - (lmax=2)
    -> L=0 0:    0.004 sec done=     63339 ( 90.6%) skipped=      6564 
    -> L=1 0:    0.004 sec done=     43725 ( 96.6%) skipped=      1526 
    -> L=1 1:    0.002 sec done=      8052 (100.0%) skipped=         0 
    -> L=2 0:    0.001 sec done=     18136 ( 87.4%) skipped=      2604 
    -> L=2 1:    0.001 sec done=      6449 ( 96.1%) skipped=       261 
    -> L=2 2:    0.000 sec done=      1830 (100.0%) skipped=         0 
    -> Aux basis density formed in    0.0 sec
    -> Solving linear equations - ok (   0.0 sec)
        Auxbasis Hermite Density:
        P|s>                     ...  0.000
        P|p>                     ...  0.000
        P|d>                     ...  0.000
        P|f>                     ...  0.000
        P|g>                     ...  0.000
        Building the Coulomb matrix: 
        J|ss>                          ... done (  0.0 sec) ndone=   476255 nskipped1=    20527 nskipped2=    14292
        J|ps>                          ... done (  0.0 sec) ndone=   313821 nskipped1=     3470 nskipped2=     9365
        J|pp>                          ... done (  0.0 sec) ndone=    61818 nskipped1=        0 nskipped2=     1362
        J|ds>                          ... done (  0.0 sec) ndone=    73698 nskipped1=     3991 nskipped2=     5899
        J|dp>                          ... done (  0.0 sec) ndone=    24990 nskipped1=       18 nskipped2=      342
        J|dd>                          ... done (  0.0 sec) ndone=     2925 nskipped1=        0 nskipped2=        0
        Coulomb matrix built in   0.0 sec

        Total time for Split-RI-J                ...    0.036 sec
          (0) Prelude                            ...    0.000 sec
          (1) Hermite density                    ...    0.000 sec
          (2) Aux basis density                  ...    0.000 sec (inner=  0.0)
          (3) Linear equation solution           ...    0.000 sec
          (4) J-Matrix construction              ...    0.011 sec (inner=  0.0)
        ---------------------------------------------------------

                         ----------------------------
                         !        ITERATION     5   !
                         ----------------------------
   Total Energy        :    -618.036092968705 Eh
   Energy Change       :      -0.000771604200 Eh
   MAX-DP              :       0.002524025091
   RMS-DP              :       0.000163577293
   Actual Damping      :       0.0000
   Actual Level Shift  :       0.2500 Eh
   Int. Num. El.       :    49.99997628 (UP=   24.99998814 DN=   24.99998814)
   Exchange            :   -51.27567397
   Correlation         :    -1.89702516
   DIIS-Error          :       0.003861535857
   DIIS coefficients:
      0.09576  -0.05533   0.28213   0.67744

==>> SHARK/AuxDens: NDens=1 Thresh =     2.500000e-11 TCut=    2.500000e-12 Lmax=2 LmaxAux=4
    -> Making Hermite density - ok     0.003 sec
    -> Making Aux-basis density - (lmax=2)
    -> L=0 0:    0.004 sec done=     61670 ( 88.2%) skipped=      8233 
    -> L=1 0:    0.004 sec done=     43580 ( 96.3%) skipped=      1671 
    -> L=1 1:    0.002 sec done=      8052 (100.0%) skipped=         0 
    -> L=2 0:    0.001 sec done=     17961 ( 86.6%) skipped=      2779 
    -> L=2 1:    0.001 sec done=      6673 ( 99.4%) skipped=        37 
    -> L=2 2:    0.000 sec done=      1830 (100.0%) skipped=         0 
    -> Aux basis density formed in    0.0 sec
    -> Solving linear equations - ok (   0.0 sec)
        Auxbasis Hermite Density:
        P|s>                     ...  0.000
        P|p>                     ...  0.000
        P|d>                     ...  0.000
        P|f>                     ...  0.000
        P|g>                     ...  0.000
        Building the Coulomb matrix: 
        J|ss>                          ... done (  0.0 sec) ndone=   470356 nskipped1=    24911 nskipped2=    12716
        J|ps>                          ... done (  0.0 sec) ndone=   310669 nskipped1=     5845 nskipped2=     8719
        J|pp>                          ... done (  0.0 sec) ndone=    61818 nskipped1=        0 nskipped2=     1362
        J|ds>                          ... done (  0.0 sec) ndone=    70317 nskipped1=     6612 nskipped2=     4282
        J|dp>                          ... done (  0.0 sec) ndone=    24694 nskipped1=      204 nskipped2=      290
        J|dd>                          ... done (  0.0 sec) ndone=     2925 nskipped1=        0 nskipped2=        0
        Coulomb matrix built in   0.0 sec

        Total time for Split-RI-J                ...    0.036 sec
          (0) Prelude                            ...    0.000 sec
          (1) Hermite density                    ...    0.000 sec
          (2) Aux basis density                  ...    0.000 sec (inner=  0.0)
          (3) Linear equation solution           ...    0.000 sec
          (4) J-Matrix construction              ...    0.011 sec (inner=  0.0)
        ---------------------------------------------------------
                      *** Initiating the SOSCF procedure ***
                           *** Shutting down DIIS ***
                      *** Re-Reading the Fockian *** 
                      *** Removing any level shift *** 

                         ----------------------------
                         !        ITERATION     6   !
                         ----------------------------
   Total Energy        :    -618.036159523743 Eh
   Energy Change       :      -0.000066555038 Eh
   MAX-DP              :       0.001427512623
   RMS-DP              :       0.000083999489
   Orbital gradient    :       0.000240838418
   Orbital Rotation    :       0.000240838418
   Actual Damping      :       0.0000
   Int. Num. El.       :    49.99997614 (UP=   24.99998807 DN=   24.99998807)
   Exchange            :   -51.28042523
   Correlation         :    -1.89719660

               *** Restarting incremental Fock matrix formation ***
==>> SHARK/AuxDens: NDens=1 Thresh =     2.500000e-11 TCut=    2.500000e-12 Lmax=2 LmaxAux=4
    -> Making Hermite density - ok     0.003 sec
    -> Making Aux-basis density - (lmax=2)
    -> L=0 0:    0.005 sec done=     66314 ( 94.9%) skipped=      3589 
    -> L=1 0:    0.004 sec done=     44893 ( 99.2%) skipped=       358 
    -> L=1 1:    0.002 sec done=      8052 (100.0%) skipped=         0 
    -> L=2 0:    0.001 sec done=     20372 ( 98.2%) skipped=       368 
    -> L=2 1:    0.001 sec done=      6710 (100.0%) skipped=         0 
    -> L=2 2:    0.000 sec done=      1830 (100.0%) skipped=         0 
    -> Aux basis density formed in    0.0 sec
    -> Solving linear equations - ok (   0.0 sec)
        Auxbasis Hermite Density:
        P|s>                     ...  0.000
        P|p>                     ...  0.000
        P|d>                     ...  0.000
        P|f>                     ...  0.000
        P|g>                     ...  0.000
        Building the Coulomb matrix: 
        J|ss>                          ... done (  0.0 sec) ndone=   491432 nskipped1=     6541 nskipped2=    24246
        J|ps>                          ... done (  0.0 sec) ndone=   317549 nskipped1=      714 nskipped2=    10408
[...]
 2 Cl dx2y2           0.5       0.4       0.0       0.4       0.0       1.0
 2 Cl dxy             0.0       1.2       0.0       0.1       0.2       2.8
 3 C  s               0.2       5.6       0.4       0.0       2.7       0.2
 3 C  pz              0.1       0.5       0.1       0.0       2.3       0.3
 3 C  px              0.4       0.0       0.6       0.0       0.5       0.0
 3 C  dz2             2.5       1.6       5.7       0.9      12.1      10.6
 3 C  dxz             6.8       0.1      11.5       0.9      13.1       1.1
 3 C  dyz             1.3       0.1       2.3       0.3       0.1       0.3
 3 C  dx2y2           0.5       0.1       0.0       0.0       0.1       0.8
 3 C  dxy             0.4       0.2      11.7       0.4       0.3       0.8
 4 C  s               0.4       5.6       0.4       2.0       0.6       0.2
 4 C  pz              0.2       0.1       0.4       0.7       0.4       0.0
 4 C  px              0.1       0.2       0.3       0.3       0.0       0.0
 4 C  py              0.2       0.3       0.1       1.1       0.3       0.3
 4 C  dz2             1.4       0.1       2.1       0.0       0.5       0.2
 4 C  dxz            22.4       0.1       5.9       4.9       0.5       0.1
 4 C  dyz             0.3       0.0      12.0       9.4       6.5       5.4
 4 C  dx2y2           8.6       1.3       1.6       2.6       0.3       4.5
 4 C  dxy             0.4       0.6       9.6       3.4       0.0       3.4
 5 H  s               0.1       0.7       0.0       0.6       0.4       0.3
 6 H  s               0.4       0.7       0.2       1.2       0.1       0.2
 7 H  s               0.0       0.4       0.0       0.5       0.3       0.4
 8 H  s               0.0       0.7       0.2       0.1       1.2       0.2
 9 H  s               0.2       0.4       0.0       0.0       0.8       0.4
10 H  s               0.2       0.7       0.0       0.0       1.0       0.3
11 H  s               0.4       0.7       0.0       0.8       0.1       0.3
12 H  s               0.2       0.7       0.2       0.7       0.6       0.2
13 H  s               0.3       0.4       0.0       0.7       0.1       0.4

                     78        79        80        81        82        83   
                   1.82484   1.82512   1.87246   1.94411   1.94433   2.14855
                   0.00000   0.00000   0.00000   0.00000   0.00000   0.00000
                  --------  --------  --------  --------  --------  --------
 0 C  s               0.0       0.0       0.6       0.0       0.0       0.2
 0 C  pz              0.2       2.6       1.4       2.4       0.9       0.1
 0 C  px              2.1       0.6       1.5       1.6       1.6       0.1
 0 C  py              1.0       0.2       4.8       0.0       1.5       0.2
 0 C  dz2             1.5       8.2       0.3       0.0       7.8       0.0
 0 C  dxz             4.8       0.0       0.6       2.3      13.4       0.0
 0 C  dyz             0.3       8.5       1.8       5.1       0.6       0.0
 0 C  dx2y2          14.6       0.7       0.7       1.6       1.3       0.0
 0 C  dxy             1.1       5.0       2.0      14.2       0.3       0.0
 1 C  s               0.5       0.6       0.0       0.5       0.5       0.0
 1 C  pz              0.2       0.3       0.2       0.4       1.0       0.4
 1 C  px              0.4       0.3       0.0       0.0       0.0       0.1
 1 C  py              0.5       0.2       1.0       1.0       0.0       0.4
 1 C  dz2             2.3       0.6       0.0       8.5      10.3       0.0
 1 C  dxz             0.3       6.8       1.8       6.1       1.4       7.1
 1 C  dyz            10.4       9.3      15.0       2.1       4.3       9.5
 1 C  dx2y2           4.9       1.7       0.0       2.0       0.8       1.8
 1 C  dxy             6.7       1.6      10.3       4.1       1.5       9.8
 2 Cl s               0.0       0.0       0.2       0.0       0.0       0.1
 2 Cl dz2             0.1       0.2       0.0       0.0       0.0       0.0
 2 Cl dxz             0.5       0.2       0.0       0.0       0.0       0.0
 2 Cl dyz             0.1       0.4       0.0       0.0       0.0       0.0
 2 Cl dx2y2           0.5       0.0       0.0       0.0       0.0       0.0
 2 Cl dxy             0.2       0.5       0.0       0.0       0.0       0.0
 3 C  s               0.1       1.0       0.0       0.9       0.1       0.0
 3 C  pz              0.0       0.5       0.0       0.0       0.2       0.0
 3 C  px              0.0       0.1       0.6       0.1       1.3       0.1
 3 C  py              0.1       1.1       0.6       0.6       0.3       0.5
 3 C  dz2             3.8       6.9       0.0       0.1       3.7       0.2
 3 C  dxz             5.8       1.6      10.6       0.7       7.9       0.4
 3 C  dyz             0.3       4.0       6.0       0.4       0.0      10.7
 3 C  dx2y2           0.2       6.2       3.8       1.3       6.0      11.7
 3 C  dxy             5.2      10.7       6.5       5.4      15.4       0.5
 4 C  s               1.0       0.1       0.0       0.1       0.9       0.0
 4 C  pz              0.0       0.1       0.7       0.4       0.7       0.1
 4 C  px              0.4       0.0       0.3       1.2       0.0       0.3
 4 C  py              1.1       0.2       0.2       0.0       0.2       0.3
 4 C  dz2             0.3       2.5       0.1       0.3       0.5      13.2
 4 C  dxz            18.7       0.3      19.5       8.5       1.4       0.5
 4 C  dyz             4.1       1.9       3.0       9.9       3.0       0.0
 4 C  dx2y2           3.6       6.6       4.2       9.2       0.6       3.8
 4 C  dxy             0.6       6.4       0.1       2.9       4.8      10.5
 5 H  s               0.0       0.2       0.4       1.2       0.2       1.6
 6 H  s               0.0       0.0       0.0       0.4       1.3       0.5
 7 H  s               0.3       0.4       0.0       0.4       0.6       4.0
 8 H  s               0.0       0.0       0.0       0.5       1.2       0.3
 9 H  s               0.1       0.6       0.0       1.0       0.0       3.3
10 H  s               0.1       0.1       0.4       0.1       1.2       1.4
11 H  s               0.2       0.0       0.4       0.8       0.6       1.9
12 H  s               0.0       0.0       0.0       1.6       0.0       0.3
13 H  s               0.7       0.0       0.0       0.1       0.9       3.9

                     84        85        86        87        88        89   
                   2.16989   2.17005   2.18959   2.30730   2.30762   2.34243
                   0.00000   0.00000   0.00000   0.00000   0.00000   0.00000
                  --------  --------  --------  --------  --------  --------
 0 C  s               0.0       0.0       0.3       0.0       0.0       6.1
 0 C  pz              0.1       0.2       0.0       0.0       0.6       0.2
 0 C  px              0.3       0.0       0.0       0.5       0.1       0.2
 0 C  py              0.0       0.1       0.1       0.2       0.1       0.6
 0 C  dz2             0.0       0.0       0.0       1.1       3.8       2.2
 0 C  dxz             0.0       0.0       0.0       3.2       6.5       4.4
 0 C  dyz             0.0       0.0       0.0       2.9       3.1      13.6
 0 C  dx2y2           0.0       0.0       0.0       5.1       0.2       5.4
 0 C  dxy             0.0       0.0       0.0       5.5       4.1      15.2
 1 C  s               0.1       0.2       0.2       0.2       0.0       0.7
 1 C  pz              0.2       0.6       1.0       0.1       0.1       0.1
 1 C  px              0.0       0.0       0.1       0.2       0.0       1.0
 1 C  py              1.0       0.2       0.2       0.1       0.1       0.0
 1 C  dz2             0.1      11.9      15.8       0.0       5.3       2.0
 1 C  dxz             3.7      10.1       4.5       9.6       6.2       0.0
 1 C  dyz             8.9       0.0       0.1       3.7       1.8       0.0
 1 C  dx2y2           6.0       6.6       2.8       0.4       4.0      11.3
 1 C  dxy             4.5       0.3       0.4      10.2       3.4       0.8
 2 Cl s               0.0       0.0       0.1       0.0       0.0       0.9
 2 Cl pz              0.0       0.0       0.0       0.0       0.0       0.1
 2 Cl px              0.0       0.0       0.0       0.0       0.0       0.1
 2 Cl py              0.0       0.0       0.0       0.0       0.0       0.4
 2 Cl dz2             0.0       0.1       0.0       0.0       0.1       0.1
 2 Cl dxz             0.0       0.0       0.0       0.0       0.0       0.2
 2 Cl dyz             0.0       0.0       0.0       0.0       0.1       0.7
 2 Cl dx2y2           0.1       0.0       0.0       0.1       0.0       0.3
 2 Cl dxy             0.0       0.0       0.0       0.0       0.0       0.8
 3 C  s               0.3       0.0       0.1       0.0       0.3       0.7
 3 C  pz              0.0       0.0       0.3       0.0       0.2       0.8
 3 C  px              0.8       0.1       0.7       0.1       0.1       0.2
 3 C  py              0.0       1.1       0.4       0.1       0.2       0.1
 3 C  dz2             5.0       0.1       0.7       2.9       0.7      10.1
 3 C  dxz             0.7       0.8       2.4       1.4       3.1       3.5
 3 C  dyz             1.6      17.8       7.7      13.8       7.0       0.1
 3 C  dx2y2          13.8       5.5       8.4       2.3      14.8       0.0
 3 C  dxy             2.7       2.3       8.8       0.8       0.0       0.4
 4 C  s               0.1       0.2       0.1       0.2       0.1       0.7
 4 C  pz              0.0       0.8       0.3       0.1       0.0       0.3
 4 C  px              1.0       0.1       0.7       0.0       0.1       0.0
 4 C  py              0.1       0.1       0.1       0.2       0.2       0.7
 4 C  dz2             1.8      19.5      12.9      22.3       0.0       0.5
 4 C  dxz             1.3       0.4       1.4       0.1       0.2       0.3
 4 C  dyz             0.1       1.6       0.3       0.3       0.3       8.7
 4 C  dx2y2          11.8       0.0       7.5       0.0       7.5       2.9
 4 C  dxy            15.3       0.6       1.4       0.2      13.8       1.8
 5 H  s               2.4       2.0       2.0       0.7       2.1       0.2
 6 H  s               0.1       4.2       3.9       0.7       1.4       0.0
 7 H  s               3.4       0.3       0.3       2.9       0.0       0.1
 8 H  s               1.9       1.9       4.6       2.2       0.0       0.0
 9 H  s               0.2       4.2       0.2       0.5       2.5       0.1
10 H  s               3.2       0.6       2.7       0.7       2.2       0.2
11 H  s               0.2       3.3       2.5       2.8       0.0       0.2
12 H  s               4.4       0.4       3.7       0.4       1.7       0.0
13 H  s               2.6       1.5       0.1       1.0       1.9       0.1

                     90        91   
                   2.51680   2.51705
                   0.00000   0.00000
                  --------  --------
 0 C  pz              2.3       1.3
 0 C  px              0.6       3.0
 0 C  py              1.6       0.1
 0 C  dz2             0.2      28.3
 0 C  dxz            10.7       5.5
 0 C  dyz            15.2       0.0
 0 C  dx2y2          17.5       6.8
 0 C  dxy             0.5       3.4
 1 C  s               0.4       1.5
 1 C  px              0.7       2.4
 1 C  py              0.1       0.1
 1 C  dz2             2.9       5.0
 1 C  dxz             0.7       0.5
 1 C  dx2y2           2.5      12.5
 1 C  dxy             1.7       2.5
 3 C  s               0.5       1.4
 3 C  pz              0.9       2.0
 3 C  px              0.1       0.5
 3 C  dz2             6.4       9.5
 3 C  dxz             1.3       9.7
 3 C  dyz             0.3       0.6
 3 C  dx2y2           0.0       0.7
 4 C  s               2.0       0.0
 4 C  pz              1.2       0.0
 4 C  px              0.4       0.0
 4 C  py              1.8       0.0
 4 C  dz2             0.0       0.6
 4 C  dxz             2.3       0.0
 4 C  dyz            15.6       0.0
 4 C  dx2y2           6.1       0.1
 4 C  dxy             2.8       0.8
 5 H  s               0.0       0.1
 6 H  s               0.2       0.1
 8 H  s               0.0       0.3
11 H  s               0.1       0.0
12 H  s               0.3       0.1


                      *****************************
                      * MAYER POPULATION ANALYSIS *
                      *****************************

  NA   - Mulliken gross atomic population
  ZA   - Total nuclear charge
  QA   - Mulliken gross atomic charge
  VA   - Mayer's total valence
  BVA  - Mayer's bonded valence
  FA   - Mayer's free valence

  ATOM       NA         ZA         QA         VA         BVA        FA
  0 C      6.0068     6.0000    -0.0068     3.8438     3.8438    -0.0000
  1 C      6.4989     6.0000    -0.4989     3.8000     3.8000     0.0000
  2 Cl    17.1278    17.0000    -0.1278     1.0054     1.0054    -0.0000
  3 C      6.4998     6.0000    -0.4998     3.8007     3.8007     0.0000
  4 C      6.4990     6.0000    -0.4990     3.8000     3.8000    -0.0000
  5 H      0.8112     1.0000     0.1888     0.9250     0.9250    -0.0000
  6 H      0.8193     1.0000     0.1807     0.9248     0.9248    -0.0000
  7 H      0.8258     1.0000     0.1742     0.9272     0.9272    -0.0000
  8 H      0.8189     1.0000     0.1811     0.9244     0.9244     0.0000
  9 H      0.8253     1.0000     0.1747     0.9269     0.9269    -0.0000
 10 H      0.8107     1.0000     0.1893     0.9247     0.9247     0.0000
 11 H      0.8112     1.0000     0.1888     0.9250     0.9250    -0.0000
 12 H      0.8193     1.0000     0.1807     0.9248     0.9248    -0.0000
 13 H      0.8259     1.0000     0.1741     0.9272     0.9272    -0.0000

  Mayer bond orders larger than 0.100000
B(  0-C ,  1-C ) :   0.9767 B(  0-C ,  2-Cl) :   0.9325 B(  0-C ,  3-C ) :   0.9772 
B(  0-C ,  4-C ) :   0.9767 B(  1-C ,  5-H ) :   0.9322 B(  1-C ,  6-H ) :   0.9359 
B(  1-C ,  7-H ) :   0.9322 B(  3-C ,  8-H ) :   0.9359 B(  3-C ,  9-H ) :   0.9324 
B(  3-C , 10-H ) :   0.9322 B(  4-C , 11-H ) :   0.9322 B(  4-C , 12-H ) :   0.9359 
B(  4-C , 13-H ) :   0.9323 

-------
TIMINGS
-------

Total SCF time: 0 days 0 hours 0 min 1 sec 

Total time                  ....       1.239 sec
Sum of individual times     ....       1.062 sec  ( 85.7%)

Fock matrix formation       ....       0.673 sec  ( 54.3%)
  Split-RI-J                ....       0.194 sec  ( 28.8% of F)
  XC integration            ....       0.427 sec  ( 63.4% of F)
    Basis function eval.    ....       0.156 sec  ( 36.6% of XC)
    Density eval.           ....       0.053 sec  ( 12.4% of XC)
    XC-Functional eval.     ....       0.058 sec  ( 13.6% of XC)
    XC-Potential eval.      ....       0.047 sec  ( 10.9% of XC)
Diagonalization             ....       0.005 sec  (  0.4%)
Density matrix formation    ....       0.001 sec  (  0.1%)
Population analysis         ....       0.034 sec  (  2.7%)
Initial guess               ....       0.005 sec  (  0.4%)
Orbital Transformation      ....       0.000 sec  (  0.0%)
Orbital Orthonormalization  ....       0.001 sec  (  0.1%)
DIIS solution               ....       0.002 sec  (  0.1%)
SOSCF solution              ....       0.012 sec  (  1.0%)
Grid generation             ....       0.331 sec  ( 26.7%)

Maximum memory used throughout the entire SCF-calculation: 17.3 MB

-------------------------   --------------------
FINAL SINGLE POINT ENERGY      -618.052077846763
-------------------------   --------------------



--------------------------------------   --------------------
FINAL SINGLE POINT ENERGY (QM/QM2)     -646.500594321903
--------------------------------------   --------------------

                                *** OPTIMIZATION RUN DONE ***

                            ***************************************
                            *     ORCA property calculations      *
                            ***************************************

                                    ---------------------
                                    Active property flags
                                    ---------------------
   (+) Dipole Moment


------------------------------------------------------------------------------
                       ORCA ELECTRIC PROPERTIES CALCULATION
------------------------------------------------------------------------------

Dipole Moment Calculation                       ... on
Quadrupole Moment Calculation                   ... off
Polarizability Calculation                      ... off
GBWName                                         ... tBu3CCl_0_1_bp86_xtb_6-31gpol.opt.gbw
Electron density                                ... tBu3CCl_0_1_bp86_xtb_6-31gpol.opt.scfp
SHARK General Contraction Test:  Segmented basis detected
   -> Pre-screening matrix found on disk - Trying to read with NShells=50
   -> Passing Pre-screening matrix on to SHARK ...ok
   -> Leaving CheckPreScreeningMatrix
----------------------
SHARK INTEGRAL PACKAGE
----------------------

Number of atoms                             ...     14
Number of basis functions                   ...     92
Number of shells                            ...     50
Maximum angular momentum                    ...      2
Integral batch strategy                     ... SHARK/LIBINT Hybrid
RI-J (if used) integral strategy            ... SPLIT-RIJ (Revised 2003 algorithm where possible)
Printlevel                                  ...      2
Contraction scheme used                     ... SEGMENTED contraction
Coulomb Range Separation                    ... NOT USED
Exchange Range Separation                   ... NOT USED
Finite Nucleus Model                        ... NOT USED
Auxiliary Coulomb fitting basis             ... AVAILABLE
   # of basis functions in Aux-J            ...    346
   # of shells in Aux-J                     ...    122
   Maximum angular momentum in Aux-J        ...      4
Auxiliary J/K fitting basis                 ... NOT available
Auxiliary Correlation fitting basis         ... NOT available
Auxiliary 'external' fitting basis          ... NOT available
Integral threshold                          ...     2.500000e-11
Primitive cut-off                           ...     2.500000e-12
Primitive pair pre-selection threshold      ...     2.500000e-12

The origin for moment calculation is the CENTER OF MASS  = (-3.673582, -0.805946  0.315401)

-------------
DIPOLE MOMENT
-------------
                                X             Y             Z
Electronic contribution:     -4.15655      -7.31411       3.91492
Nuclear contribution   :      4.60030       8.09624      -4.33498
                        -----------------------------------------
Total Dipole Moment    :      0.44375       0.78213      -0.42006
                        -----------------------------------------
Magnitude (a.u.)       :      0.99251
Magnitude (Debye)      :      2.52277



--------------------
Rotational spectrum 
--------------------
 
Rotational constants in cm-1:     0.126691     0.094362     0.094345 
Rotational constants in MHz :  3798.085704  2828.910259  2828.380733 

 Dipole components along the rotational axes: 
x,y,z [a.u.] :    -0.992511     0.000387     0.001396 
x,y,z [Debye]:    -2.522763     0.000985     0.003549 

 

Timings for individual modules:

Sum of individual times         ...      223.413 sec (=   3.724 min)
GTO integral calculation        ...       56.994 sec (=   0.950 min)  25.5 %
SCF iterations                  ...       88.581 sec (=   1.476 min)  39.6 %
SCF Gradient evaluation         ...       66.073 sec (=   1.101 min)  29.6 %
Geometry relaxation             ...        2.714 sec (=   0.045 min)   1.2 %
XTB module                      ...        4.582 sec (=   0.076 min)   2.1 %
ONIOM_Small energy and gradient ...        1.956 sec (=   0.033 min)   0.9 %
ONIOM_Large energy and gradient ...        2.513 sec (=   0.042 min)   1.1 %
                             ****ORCA TERMINATED NORMALLY****
TOTAL RUN TIME: 0 days 0 hours 4 minutes 49 seconds 363 msec
