
                                 *****************
                                 * O   R   C   A *
                                 *****************

           --- An Ab Initio, DFT and Semiempirical electronic structure package ---

                  #######################################################
                  #                        -***-                        #
                  #          Department of theory and spectroscopy      #
                  #               Directorship: Frank Neese             #
                  #        Max Planck Institute fuer Kohlenforschung    #
                  #                Kaiser Wilhelm Platz 1               #
                  #                 D-45470 Muelheim/Ruhr               #
                  #                      Germany                        #
                  #                                                     #
                  #                  All rights reserved                #
                  #                        -***-                        #
                  #######################################################


                         Program Version 4.2.0 -  RELEASE  -


 With contributions from (in alphabetic order):
   Daniel Aravena         : Magnetic Suceptibility
   Michael Atanasov       : Ab Initio Ligand Field Theory (pilot matlab implementation)
   Alexander A. Auer      : GIAO ZORA, VPT2
   Ute Becker             : Parallelization
   Giovanni Bistoni       : ED, misc. LED, open-shell LED, HFLED
   Martin Brehm           : Molecular dynamics
   Dmytro Bykov           : SCF Hessian
   Vijay G. Chilkuri      : MRCI spin determinant printing, contributions to CSF-ICE
   Dipayan Datta          : RHF DLPNO-CCSD density
   Achintya Kumar Dutta   : EOM-CC, STEOM-CC
   Dmitry Ganyushin       : Spin-Orbit,Spin-Spin,Magnetic field MRCI
   Miquel Garcia          : C-PCM Hessian, Gaussian charge scheme
   Yang Guo               : DLPNO-NEVPT2, CIM, IAO-localization
   Andreas Hansen         : Spin unrestricted coupled pair/coupled cluster methods
   Benjamin Helmich-Paris : CASSCF linear response (MC-RPA)
   Lee Huntington         : MR-EOM, pCC
   Robert Izsak           : Overlap fitted RIJCOSX, COSX-SCS-MP3, EOM
   Christian Kollmar      : KDIIS, OOCD, Brueckner-CCSD(T), CCSD density
   Simone Kossmann        : Meta GGA functionals, TD-DFT gradient, OOMP2, MP2 Hessian
   Martin Krupicka        : AUTO-CI
   Lucas Lang             : DCDCAS
   Dagmar Lenk            : GEPOL surface, SMD
   Dimitrios Liakos       : Extrapolation schemes; Compound Job, initial MDCI parallelization
   Dimitrios Manganas     : Further ROCIS development; embedding schemes
   Dimitrios Pantazis     : SARC Basis sets
   Taras Petrenko         : DFT Hessian,TD-DFT gradient, ASA, ECA, R-Raman, ABS, FL, XAS/XES, NRVS
   Peter Pinski           : DLPNO-MP2, DLPNO-MP2 Gradient
   Christoph Reimann      : Effective Core Potentials
   Marius Retegan         : Local ZFS, SOC
   Christoph Riplinger    : Optimizer, TS searches, QM/MM, DLPNO-CCSD(T), (RO)-DLPNO pert. Triples
   Tobias Risthaus        : Range-separated hybrids, TD-DFT gradient, RPA, STAB
   Michael Roemelt        : Original ROCIS implementation
   Masaaki Saitow         : Open-shell DLPNO-CCSD energy and density
   Barbara Sandhoefer     : DKH picture change effects
   Avijit Sen             : IP-ROCIS
   Kantharuban Sivalingam : CASSCF convergence, NEVPT2, FIC-MRCI
   Bernardo de Souza      : ESD, SOC TD-DFT
   Georgi Stoychev        : AutoAux, RI-MP2 NMR
   Willem Van den Heuvel  : Paramagnetic NMR
   Boris Wezisla          : Elementary symmetry handling
   Frank Wennmohs         : Technical directorship


 We gratefully acknowledge several colleagues who have allowed us to
 interface, adapt or use parts of their codes:
   Stefan Grimme, W. Hujo, H. Kruse,             : VdW corrections, initial TS optimization,
                  C. Bannwarth                     DFT functionals, gCP, sTDA/sTD-DF
   Ed Valeev, F. Pavosevic, A. Kumar             : LibInt (2-el integral package), F12 methods
   Garnet Chan, S. Sharma, J. Yang, R. Olivares  : DMRG
   Ulf Ekstrom                                   : XCFun DFT Library
   Mihaly Kallay                                 : mrcc  (arbitrary order and MRCC methods)
   Andreas Klamt, Michael Diedenhofen            : otool_cosmo (COSMO solvation model)
   Jiri Pittner, Ondrej Demel                    : Mk-CCSD
   Frank Weinhold                                : gennbo (NPA and NBO analysis)
   Christopher J. Cramer and Donald G. Truhlar   : smd solvation model
   Lars Goerigk                                  : TD-DFT with DH, B97 family of functionals
   V. Asgeirsson, H. Jonsson                     : NEB implementation
   FAccTs GmbH                                   : IRC, NEB, NEB-TS, Multilevel, MM, QM/MM, CI optimization
   S Lehtola, MJT Oliveira, MAL Marques          : LibXC Library


 Your calculation uses the libint2 library for the computation of 2-el integrals
 For citations please refer to: http://libint.valeyev.net

 Your ORCA version has been built with support for libXC version: 4.2.3
 For citations please refer to: https://tddft.org/programs/libxc/

 This ORCA versions uses:
   CBLAS   interface :  Fast vector & matrix operations
   LAPACKE interface :  Fast linear algebra routines
   SCALAPACK package :  Parallel linear algebra routines


----- Orbital basis set information -----
Your calculation utilizes the basis: def2-QZVPP
   F. Weigend and R. Ahlrichs, Phys. Chem. Chem. Phys. 7, 3297 (2005).

================================================================================
                                        WARNINGS
                       Please study these warnings very carefully!
================================================================================


INFO   : the flag for use of LIBINT has been found!

================================================================================
                                       INPUT FILE
================================================================================
NAME = H2_0_1_CASSCF-2-12_def2-qzvpp.sp.inp
|  1> !rhf def2-qzvpp tightscf 
|  2> !normalprint
|  3> 
|  4> %paras
|  5> #  rHH [19.952623149688797 16.43574799372698 13.538761800225439 11.152402139117903 9.1866653175426 7.567411809920191 6.233570019315557 5.134832907437553 4.229760619613384 3.4842175435383975 2.870084854071569 2.3641999865500756 1.9474830399087562 1.6042171611153242 1.32145576997553 1.088534267260644 0.8966678097917788 0.7386199822079362 0.6084298690766428 0.5011872336272722]
|  6>   rHH [0.5011872336272722 0.6084298690766428 0.7386199822079362 0.8966678097917788 1.088534267260644 1.32145576997553 1.6042171611153242 1.9474830399087562 2.3641999865500756 2.870084854071569 3.4842175435383975 4.229760619613384 5.134832907437553 6.233570019315557 7.567411809920191 9.1866653175426 11.152402139117903 13.538761800225439 16.43574799372698 19.952623149688797]
|  7> end
|  8> 
|  9> %scf
| 10>   maxiter 500
| 11> end
| 12> 
| 13> %casscf
| 14>   nel 2
| 15>   norb 12
| 16> end
| 17> 
| 18> *int 0 1
| 19> H 0 0 0 0 0 0
| 20> H 1 0 0 {rHH} 0 0
| 21> *
| 22> 
| 23>                          ****END OF INPUT****
================================================================================

                       ******************************
                       * Parameter Scan Calculation *
                       ******************************

Trajectory settings:
    -> SCF surface will be mapped

There are 1 parameter(s) to be scanned
           RHH: user defined at 20 points
There will be   20 energy evaluations


         *************************************************************
                                TRAJECTORY STEP   1
                RHH  :   0.50118723
         *************************************************************
---------------------------------
CARTESIAN COORDINATES (ANGSTROEM)
---------------------------------
  H      0.000000    0.000000    0.000000
  H      0.501187    0.000000    0.000000

----------------------------
CARTESIAN COORDINATES (A.U.)
----------------------------
  NO LB      ZA    FRAG     MASS         X           Y           Z
   0 H     1.0000    0     1.008    0.000000    0.000000    0.000000
   1 H     1.0000    0     1.008    0.947107    0.000000    0.000000

--------------------------------
INTERNAL COORDINATES (ANGSTROEM)
--------------------------------
 H      0   0   0     0.000000000000     0.00000000     0.00000000
 H      1   0   0     0.501187233627     0.00000000     0.00000000

---------------------------
INTERNAL COORDINATES (A.U.)
---------------------------
 H      0   0   0     0.000000000000     0.00000000     0.00000000
 H      1   0   0     0.947106613373     0.00000000     0.00000000

---------------------
BASIS SET INFORMATION
---------------------
There are 1 groups of distinct atoms

 Group   1 Type H   : 7s3p2d1f contracted to 4s3p2d1f pattern {4111/111/11/1}

Atom   0H    basis set group =>   1
Atom   1H    basis set group =>   1
------------------------------------------------------------------------------
                           ORCA GTO INTEGRAL CALCULATION
------------------------------------------------------------------------------

                         BASIS SET STATISTICS AND STARTUP INFO

 # of primitive gaussian shells          ...   26
 # of primitive gaussian functions       ...   66
 # of contracted shells                  ...   20
 # of contracted basis functions         ...   60
 Highest angular momentum                ...    3
 Maximum contraction depth               ...    4
 Integral package used                   ... LIBINT
 Integral threshhold            Thresh   ...  2.500e-11
 Primitive cut-off              TCut     ...  2.500e-12


------------------------------ INTEGRAL EVALUATION ----------------------------


 * One electron integrals 
 Pre-screening matrix                    ... done
 Shell pair data                         ... done (   0.000 sec)

-------------------------------------------------------------------------------
                                 ORCA SCF
-------------------------------------------------------------------------------

------------
SCF SETTINGS
------------
Hamiltonian:
 Ab initio Hamiltonian  Method          .... Hartree-Fock(GTOs)


General Settings:
 Integral files         IntName         .... H2_0_1_CASSCF-2-12_def2-qzvpp.sp
 Hartree-Fock type      HFTyp           .... CASSCF
 Total Charge           Charge          ....    0
 Multiplicity           Mult            ....    1
 Number of Electrons    NEL             ....    2
 Basis Dimension        Dim             ....   60
 Nuclear Repulsion      ENuc            ....      1.0558473417 Eh


Diagonalization of the overlap matrix:
Smallest eigenvalue                        ... 5.708e-05
Time for diagonalization                   ...    0.074 sec
Threshold for overlap eigenvalues          ... 1.000e-08
Number of eigenvalues below threshold      ... 0
Time for construction of square roots      ...    0.003 sec
Total time needed                          ...    0.077 sec

-------------------
DFT GRID GENERATION
-------------------

General Integration Accuracy     IntAcc      ...  4.340
Radial Grid Type                 RadialGrid  ... Gauss-Chebyshev
Angular Grid (max. acc.)         AngularGrid ... Lebedev-110
Angular grid pruning method      GridPruning ... 3 (G Style)
Weight generation scheme         WeightScheme... Becke
Basis function cutoff            BFCut       ...    1.0000e-11
Integration weight cutoff        WCut        ...    1.0000e-14
Grids for H and He will be reduced by one unit

# of grid points (after initial pruning)     ...   1588 (   0.0 sec)
# of grid points (after weights+screening)   ...   1560 (   0.0 sec)
nearest neighbour list constructed           ...    0.0 sec
Grid point re-assignment to atoms done       ...    0.0 sec
Grid point division into batches done        ...    0.0 sec
Reduced shell lists constructed in    0.0 sec

Total number of grid points                  ...     1560
Total number of batches                      ...       26
Average number of points per batch           ...       60
Average number of grid points per atom       ...      780
Average number of shells per batch           ...    19.15 (95.74%)
Average number of basis functions per batch  ...    57.44 (95.74%)
Average number of large shells per batch     ...    18.78 (98.07%)
Average number of large basis fcns per batch ...    56.19 (97.81%)
Maximum spatial batch extension              ...  15.26, 21.59, 21.59 au
Average spatial batch extension              ...   4.46,  7.66,  7.77 au

Time for grid setup =    0.007 sec

------------------------------
INITIAL GUESS: MODEL POTENTIAL
------------------------------
Loading Hartree-Fock densities                     ... done
Calculating cut-offs                               ... done
Setting up the integral package                    ... done
Initializing the effective Hamiltonian             ... done
Starting the Coulomb interaction                   ... done (   0.0 sec)
Reading the grid                                   ... done
Mapping shells                                     ... done
Starting the XC term evaluation                    ... done (   0.0 sec)
Transforming the Hamiltonian                       ... done (   0.0 sec)
Diagonalizing the Hamiltonian                      ... done (   0.0 sec)
Back transforming the eigenvectors                 ... done (   0.0 sec)
Now organizing SCF variables                       ... done
                      ------------------
                      INITIAL GUESS DONE (   0.1 sec)
                      ------------------


 ... the calculation is a CASSCF calculation -I'm leaving here GOOD LUCK!!!

-------------------------------------------------------------------------------
                              ORCA-CASSCF
-------------------------------------------------------------------------------

Setting up the integral package       ... done
Building the CAS space                ... done (78 configurations for Mult=1)
----------------
GENERAL CI SETUP
----------------

Checking configurations                         ... done
Determining NSOMO,NDOMO and NVMO                ... done
Building up the tree                            ... done
Building N-1 electron tree                      ... done
Building RI configuration space                 ... done
Analyzing the RI configuration space            ... done
Determining NDOMO,NSOMO,NVMO for RI space       ... done
Determination of address arrays                 ... done
Looking for max. no of open shells              ... done
Setting up coupling coefficient container       ... Memory for address arrays  		      ... done
Make address arrays			      ... done
Memory for buffers 			      ... done
Setting up spin-function prototypes	      ... (MAXOPEN=2) 0 2 4 done
Trivial cases - DOMO's			      ... done (  0.0 MB)
Number of open shells			    ...  0
domo->virtual excitations			... done (  0.0 MB)
domo->somo excitations				... done (  0.0 MB)
somo->virtual excitations			... done (  0.0 MB)
somo->somo excitations				... done (  0.0 MB)
Number of open shells			    ...  2
domo->virtual excitations			... done (  0.0 MB)
domo->somo excitations				... done (  0.0 MB)
somo->virtual excitations			... done (  0.0 MB)
somo->somo excitations				... done (  0.0 MB)
Coupling container construction done
done
Now recording sub-block dimensions              ... done
Memory used for TGeneralCI arrays =     0.0 MB
  Original space  =     0.0
  RI       space  =     0.0
  Address arrays  =     0.0
  Coupling coeffs =     0.0
Multiplicity                          ...       1
# of electrons                        ...       2
# of orbitals                         ...      12
# of roots requested                  ...       1
Configuration space:
# of configurations                   ...      78
# of CSF's                            ...      78
# of rejected configurations          ...       0
Min. # of SOMOs                       ...       0
Max. # of SOMOs                       ...       2
Max. # of DOMOs                       ...       1
Max. # of VMOs                        ...      11
RI Configuration space:
# of configurations                   ...      78
# of CSF's                            ...      78
# of rejected configurations          ...       0
Min. # of SOMOs                       ...       0
Max. # of SOMOs                       ...       2
Max. # of DOMOs                       ...       1
Max. # of VMOs                        ...      11
(N-1) Electron Configuration space:
# of configurations                   ...      12
CSF dimensions:
      0 SOMOs give     1 CSFs
      2 SOMOs give     1 CSFs


SYSTEM-SPECIFIC SETTINGS:
Number of active electrons          ...    2
Number of active orbitals           ...   12
Total number of electrons           ...    2
Total number of orbitals            ...   60

Determined orbital ranges:
   Internal       0 -   -1 (   0 orbitals)
   Active         0 -   11 (  12 orbitals)
   External      12 -   59 (  48 orbitals)
Number of rotation parameters      ...    576

CI-STEP:
CI strategy                         ... General CI
Number of multiplicity blocks       ...    1
BLOCK  1 WEIGHT=   1.0000
  Multiplicity                      ...    1
  #(Configurations)                 ...   78
  #(CSFs)                           ...   78
  #(Roots)                          ...    1
    ROOT=0 WEIGHT=    1.000000

  PrintLevel                        ...    1
  N(GuessMat)                       ...       512
  MaxDim(CI)                        ...        10
  MaxIter(CI)                       ...        64
  Energy Tolerance CI               ...  2.50e-09
  Residual Tolerance CI             ...  2.50e-09
  Shift(CI)                         ...  1.00e-04

INTEGRAL-TRANSFORMATION-STEP:
  Algorithm                         ... EXACT

ORBITAL-IMPROVEMENT-STEP:
  Algorithm                         ... SuperCI(PT)
  Default Parametrization           ... CAYLEY
  Act-Act rotations                 ... depends on algorithm used

  Note: SuperCI(PT) will ignore FreezeIE, FreezeAct and FreezeGrad. In general Default settings are encouraged.
        In conjunction with ShiftUp, ShiftDn or GradScaling the performance of SuperCI(PT) is less optimal.  

  MaxRot                            ... 2.00e-01 
  Max. no of vectors (DIIS)         ... 15
  DThresh (cut-off) metric          ... 1.00e-06
  Switch step at gradient           ...  3.00e-02 
  Switch step at iteration          ...        50   
  Switch step to                    ... SuperCI(PT)    

SCF-SETTINGS:
  Incremental                       ... on
  RIJCOSX approximation             ... off
  RI-JK approximation               ... off
  AO integral handling              ... DIRECT
  Integral Neglect Thresh           ...  2.50e-11
  Primitive cutoff TCut             ...  2.50e-12
  Energy convergence tolerance      ...  2.50e-08
  Orbital gradient convergence      ...  2.50e-04
  Max. number of iterations         ...        75  


FINAL ORBITALS:
  Active   Orbitals                 ... natural 
  Internal Orbitals                 ... canonical 
  External Orbitals                 ... canonical 

------------------
CAS-SCF ITERATIONS
------------------


MACRO-ITERATION   1: 
   --- Inactive Energy E0 = 1.05584734 Eh
CI-ITERATION   0: 
    -1.084134464   0.000000000000 (    0.00)
   CI-PROBLEM SOLVED
   DENSITIES MADE

                 <<<<<<<<<<<<<<<<<<INITIAL CI STATE CHECK>>>>>>>>>>>>>>>>>>

BLOCK  1 MULT= 1 NROOTS= 1 
ROOT   0:  E=      -1.0841344644 Eh
      0.98273 [     0]: 200000000000
      0.00485 [     2]: 101000000000

                 <<<<<<<<<<<<<<<<<<INITIAL CI STATE CHECK>>>>>>>>>>>>>>>>>>

   E(CAS)=    -1.084134464 Eh DE=     0.000000000
   --- Energy gap subspaces: Ext-Act = 0.000   Act-Int = 0.600
   N(occ)=  1.97342 0.00288 0.00769 0.00227 0.00227 0.00355 0.00133 0.00002 0.00002 0.00459 0.00189 0.00009
   ||g|| =      0.176335593 Max(G)=     0.148710982 Rot=24,0
   --- Orbital Update [SuperCI(PT)]
   --- Canonicalize Internal Space
   --- Canonicalize External Space
   --- SX_PT (Skipped TA=1 IT=0): ||X|| =      2.722453335 Max(X)(24,9) =     -0.941949999 
   --- SFit(Active Orbitals)

MACRO-ITERATION   2: 
   --- Inactive Energy E0 = 1.05584734 Eh
CI-ITERATION   0: 
    -1.092372884   0.000000000000 (    0.00)
   CI-PROBLEM SOLVED
   DENSITIES MADE
   E(CAS)=    -1.092372884 Eh DE=    -0.008238420
   --- Energy gap subspaces: Ext-Act = -0.441   Act-Int = 0.600
   N(occ)=  1.97152 0.00169 0.00439 0.00404 0.00404 0.00435 0.00200 0.00008 0.00008 0.00473 0.00295 0.00011
   ||g|| =      0.124123664 Max(G)=    -0.075742382 Rot=18,0
   --- Orbital Update [SuperCI(PT)]
   --- Canonicalize Internal Space
   --- Canonicalize External Space
   --- SX_PT (Skipped TA=1 IT=0): ||X|| =      1.394488184 Max(X)(18,6) =     -0.531342678 
   --- SFit(Active Orbitals)

MACRO-ITERATION   3: 
   --- Inactive Energy E0 = 1.05584734 Eh
CI-ITERATION   0: 
    -1.101108812   0.000000000000 (    0.00)
   CI-PROBLEM SOLVED
   DENSITIES MADE
   E(CAS)=    -1.101108812 Eh DE=    -0.008735928
   --- Energy gap subspaces: Ext-Act = -1.300   Act-Int = 0.600
   N(occ)=  1.97024 0.00152 0.00380 0.00431 0.00431 0.00454 0.00273 0.00013 0.00013 0.00463 0.00357 0.00009
   ||g|| =      0.064342505 Max(G)=    -0.049296438 Rot=18,0
   --- Orbital Update [SuperCI(PT)]
   --- Canonicalize Internal Space
   --- Canonicalize External Space
   --- SX_PT (Skipped TA=1 IT=0): ||X|| =      0.520518934 Max(X)(15,8) =      0.253025188 
   --- SFit(Active Orbitals)

MACRO-ITERATION   4: 
   --- Inactive Energy E0 = 1.05584734 Eh
CI-ITERATION   0: 
    -1.102342334   0.000000000000 (    0.00)
   CI-PROBLEM SOLVED
   DENSITIES MADE
   E(CAS)=    -1.102342334 Eh DE=    -0.001233523
   --- Energy gap subspaces: Ext-Act = -1.544   Act-Int = 0.600
   N(occ)=  1.97109 0.00161 0.00369 0.00379 0.00379 0.00442 0.00288 0.00012 0.00012 0.00476 0.00367 0.00008
   ||g|| =      0.019048771 Max(G)=    -0.011804725 Rot=44,0
   --- Orbital Update [SuperCI(PT)]
   --- Canonicalize Internal Space
   --- Canonicalize External Space
   --- SX_PT (Skipped TA=1 IT=0): ||X|| =      0.163233198 Max(X)(12,9) =      0.078889047 
   --- SFit(Active Orbitals)

MACRO-ITERATION   5: 
   --- Inactive Energy E0 = 1.05584734 Eh
CI-ITERATION   0: 
    -1.102435593   0.000000000000 (    0.00)
   CI-PROBLEM SOLVED
   DENSITIES MADE
   E(CAS)=    -1.102435593 Eh DE=    -0.000093259
   --- Energy gap subspaces: Ext-Act = -1.363   Act-Int = 0.600
   N(occ)=  1.97052 0.00158 0.00388 0.00395 0.00395 0.00451 0.00287 0.00012 0.00012 0.00481 0.00360 0.00008
   ||g|| =      0.008689648 Max(G)=    -0.007689677 Rot=18,0
   --- Orbital Update [SuperCI(PT)]
   --- Canonicalize Internal Space
   --- Canonicalize External Space
   --- SX_PT (Skipped TA=1 IT=0): ||X|| =      0.104194911 Max(X)(15,7) =      0.049986679 
   --- SFit(Active Orbitals)

MACRO-ITERATION   6: 
   --- Inactive Energy E0 = 1.05584734 Eh
CI-ITERATION   0: 
    -1.102471679   0.000000000000 (    0.00)
   CI-PROBLEM SOLVED
   DENSITIES MADE
   E(CAS)=    -1.102471679 Eh DE=    -0.000036086
   --- Energy gap subspaces: Ext-Act = -1.349   Act-Int = 0.600
   N(occ)=  1.97075 0.00161 0.00390 0.00384 0.00384 0.00450 0.00284 0.00011 0.00011 0.00482 0.00361 0.00008
   ||g|| =      0.006389724 Max(G)=     0.004376339 Rot=18,0
   --- Orbital Update [SuperCI(PT)]
   --- Canonicalize Internal Space
   --- Canonicalize External Space
   --- SX_PT (Skipped TA=1 IT=0): ||X|| =      0.043624750 Max(X)(16,6) =     -0.022190121 
   --- SFit(Active Orbitals)

MACRO-ITERATION   7: 
   --- Inactive Energy E0 = 1.05584734 Eh
CI-ITERATION   0: 
    -1.102479503   0.000000000000 (    0.00)
   CI-PROBLEM SOLVED
   DENSITIES MADE
   E(CAS)=    -1.102479503 Eh DE=    -0.000007824
   --- Energy gap subspaces: Ext-Act = -1.334   Act-Int = 0.600
   N(occ)=  1.97068 0.00160 0.00391 0.00386 0.00386 0.00450 0.00284 0.00011 0.00011 0.00482 0.00361 0.00008
   ||g|| =      0.001910223 Max(G)=    -0.001186115 Rot=44,0
   --- Orbital Update [SuperCI(PT)]
   --- Canonicalize Internal Space
   --- Canonicalize External Space
   --- SX_PT (Skipped TA=1 IT=0): ||X|| =      0.008893303 Max(X)(12,9) =      0.003187511 
   --- SFit(Active Orbitals)

MACRO-ITERATION   8: 
   --- Inactive Energy E0 = 1.05584734 Eh
CI-ITERATION   0: 
    -1.102479890   0.000000000000 (    0.00)
   CI-PROBLEM SOLVED
   DENSITIES MADE
   E(CAS)=    -1.102479890 Eh DE=    -0.000000387
   --- Energy gap subspaces: Ext-Act = -1.307   Act-Int = 0.600
   N(occ)=  1.97066 0.00160 0.00393 0.00386 0.00386 0.00450 0.00284 0.00011 0.00011 0.00483 0.00361 0.00008
   ||g|| =      0.000305973 Max(G)=    -0.000214417 Rot=30,0
   --- Orbital Update [SuperCI(PT)]
   --- Canonicalize Internal Space
   --- Canonicalize External Space
   --- SX_PT (Skipped TA=1 IT=0): ||X|| =      0.001992264 Max(X)(16,6) =      0.001011798 
   --- SFit(Active Orbitals)

MACRO-ITERATION   9: 
   --- Inactive Energy E0 = 1.05584734 Eh
CI-ITERATION   0: 
    -1.102479906   0.000000000000 (    0.00)
   CI-PROBLEM SOLVED
   DENSITIES MADE
   E(CAS)=    -1.102479906 Eh DE=    -0.000000016
   --- Energy gap subspaces: Ext-Act = -1.304   Act-Int = 0.600
   N(occ)=  1.97065 0.00160 0.00393 0.00386 0.00386 0.00450 0.00284 0.00011 0.00011 0.00483 0.00361 0.00008
   ||g|| =      0.000065881 Max(G)=    -0.000047723 Rot=30,0
                     ---- THE CAS-SCF ENERGY   HAS CONVERGED ----
                     ---- THE CAS-SCF GRADIENT HAS CONVERGED ----
                            --- FINALIZING ORBITALS ---
                    ---- DOING ONE FINAL ITERATION FOR PRINTING ----
   --- Forming Natural Orbitals
   --- Canonicalize Internal Space
   --- Canonicalize External Space

MACRO-ITERATION  10: 
   --- Inactive Energy E0 = 1.05584734 Eh
   --- All densities will be recomputed
CI-ITERATION   0: 
    -1.102479906   0.000000000000 (    0.00)
   CI-PROBLEM SOLVED
   DENSITIES MADE
   E(CAS)=    -1.102479906 Eh DE=     0.000000000
   --- Energy gap subspaces: Ext-Act = -3.512   Act-Int = 0.600
   N(occ)=  1.97513 0.00956 0.00691 0.00386 0.00386 0.00015 0.00013 0.00011 0.00011 0.00009 0.00008 0.00000
   ||g|| =      0.000065881 Max(G)=     0.000051528 Rot=28,0
--------------
CASSCF RESULTS
--------------

Final CASSCF energy       : -1.102479906 Eh     -30.0000 eV

----------------
ORBITAL ENERGIES
----------------

  NO   OCC          E(Eh)            E(eV) 
   0   1.9751      -0.674292       -18.3484 
   1   0.0096       0.969025        26.3685 
   2   0.0069       1.059913        28.8417 
   3   0.0039       1.281405        34.8688 
   4   0.0039       1.281405        34.8688 
   5   0.0001       3.667809        99.8061 
   6   0.0001       3.388883        92.2162 
   7   0.0001       3.304217        89.9123 
   8   0.0001       3.304217        89.9123 
   9   0.0001       4.261553       115.9627 
  10   0.0001       3.306073        89.9628 
  11   0.0000       0.529434        14.4066 
  12   0.0000       0.749097        20.3840 
  13   0.0000       0.781162        21.2565 
  14   0.0000       1.158066        31.5126 
  15   0.0000       1.158066        31.5126 
  16   0.0000       1.271470        34.5984 
  17   0.0000       1.575350        42.8674 
  18   0.0000       1.575350        42.8674 
  19   0.0000       2.000370        54.4328 
  20   0.0000       2.558445        69.6188 
  21   0.0000       2.558446        69.6189 
  22   0.0000       2.610628        71.0388 
  23   0.0000       2.610628        71.0388 
  24   0.0000       2.649278        72.0905 
  25   0.0000       2.758568        75.0644 
  26   0.0000       3.379139        91.9510 
  27   0.0000       3.379139        91.9510 
  28   0.0000       5.118961       139.2940 
  29   0.0000       5.776493       157.1864 
  30   0.0000       5.776493       157.1864 
  31   0.0000       5.918770       161.0579 
  32   0.0000       6.174559       168.0183 
  33   0.0000       6.341309       172.5558 
  34   0.0000       6.875563       187.0936 
  35   0.0000       6.875563       187.0936 
  36   0.0000       6.903095       187.8428 
  37   0.0000       7.015972       190.9143 
  38   0.0000       7.015972       190.9143 
  39   0.0000       7.111144       193.5041 
  40   0.0000       7.111144       193.5041 
  41   0.0000       7.119404       193.7288 
  42   0.0000       7.119404       193.7288 
  43   0.0000       7.229243       196.7177 
  44   0.0000       7.229243       196.7177 
  45   0.0000       7.554178       205.5596 
  46   0.0000       7.574106       206.1019 
  47   0.0000       7.895512       214.8478 
  48   0.0000       8.059847       219.3196 
  49   0.0000       8.505802       231.4546 
  50   0.0000       8.505802       231.4546 
  51   0.0000      10.665209       290.2151 
  52   0.0000      10.665209       290.2151 
  53   0.0000      11.372269       309.4552 
  54   0.0000      11.372269       309.4552 
  55   0.0000      11.992536       326.3335 
  56   0.0000      15.080871       410.3714 
  57   0.0000      15.080871       410.3714 
  58   0.0000      15.672924       426.4819 
  59   0.0000      18.505435       503.5585 


---------------------------------------------
CAS-SCF STATES FOR BLOCK  1 MULT= 1 NROOTS= 1
---------------------------------------------

ROOT   0:  E=      -1.1024799058 Eh
      0.98756 [     0]: 200000000000
      0.00478 [    12]: 020000000000
      0.00345 [    23]: 002000000000


--------------
DENSITY MATRIX
--------------

                  0          1          2          3          4          5    
      0       1.975125  -0.000000  -0.000000   0.000000  -0.000000  -0.000000
      1      -0.000000   0.009565  -0.000000   0.000000   0.000000   0.000000
      2      -0.000000  -0.000000   0.006907   0.000000  -0.000000   0.000000
      3       0.000000   0.000000   0.000000   0.003859   0.000000   0.000000
      4      -0.000000   0.000000  -0.000000   0.000000   0.003859   0.000000
      5      -0.000000   0.000000   0.000000   0.000000   0.000000   0.000148
      6       0.000000   0.000000  -0.000000   0.000000   0.000000  -0.000000
      7      -0.000000  -0.000000  -0.000000   0.000000  -0.000000   0.000000
      8      -0.000000  -0.000000   0.000000   0.000000   0.000000  -0.000000
      9      -0.000000   0.000000   0.000000  -0.000000   0.000000   0.000000
     10      -0.000000  -0.000000   0.000000   0.000000  -0.000000   0.000000
     11       0.000000   0.000000  -0.000000   0.000000   0.000000  -0.000000
                  6          7          8          9         10         11    
      0       0.000000  -0.000000  -0.000000  -0.000000  -0.000000   0.000000
      1       0.000000  -0.000000  -0.000000   0.000000  -0.000000   0.000000
      2      -0.000000  -0.000000   0.000000   0.000000   0.000000  -0.000000
      3       0.000000   0.000000   0.000000  -0.000000   0.000000   0.000000
      4       0.000000  -0.000000   0.000000   0.000000  -0.000000   0.000000
      5      -0.000000   0.000000  -0.000000   0.000000   0.000000  -0.000000
      6       0.000133   0.000000   0.000000  -0.000000   0.000000  -0.000000
      7       0.000000   0.000113  -0.000000  -0.000000   0.000000  -0.000000
      8       0.000000  -0.000000   0.000113  -0.000000   0.000000  -0.000000
      9      -0.000000  -0.000000  -0.000000   0.000093   0.000000  -0.000000
     10       0.000000   0.000000   0.000000   0.000000   0.000085  -0.000000
     11      -0.000000  -0.000000  -0.000000  -0.000000  -0.000000   0.000000
Trace of the electron density:  2.000000

-----------------
ENERGY COMPONENTS
-----------------

One electron energy          :     -2.848611864 Eh         -77.5147 eV
Two electron energy          :      0.690284616 Eh          18.7836 eV
Nuclear repulsion energy     :      1.055847342 Eh          28.7311 eV
                               ----------------
                                   -1.102479906

Kinetic energy               :      1.492302345 Eh          40.6076 eV
Potential energy             :     -2.594782251 Eh         -70.6076 eV
Virial ratio                 :     -1.738777842 
                               ----------------
                                   -1.102479906

Core energy                  :      1.055847342 Eh       28.7311 eV


----------------------------
LOEWDIN ORBITAL-COMPOSITIONS
----------------------------

                      0         1         2         3         4         5   
                  -0.67429   0.96903   1.05991   1.28140   1.28140   3.66781
                   1.97513   0.00956   0.00691   0.00386   0.00386   0.00015
                  --------  --------  --------  --------  --------  --------
 0 H  s              47.2       9.8      35.6       0.0       0.0      17.8
 0 H  pz              0.0       0.0       0.0      11.6      35.1       0.0
 0 H  px              2.4      35.6      12.4       0.0       0.0      17.4
 0 H  py              0.0       0.0       0.0      35.1      11.6       0.0
 0 H  dz2             0.1       1.0       0.5       0.0       0.0       2.5
 0 H  dxz             0.0       0.0       0.0       0.8       2.4       0.0
 0 H  dx2y2           0.2       3.1       1.4       0.0       0.0       7.5
 0 H  dxy             0.0       0.0       0.0       2.4       0.8       0.0
 0 H  f+1             0.0       0.2       0.1       0.0       0.0       1.8
 0 H  f+3             0.0       0.3       0.1       0.0       0.0       2.9
 0 H  f-3             0.0       0.0       0.0       0.1       0.0       0.0
 1 H  s              47.2       9.8      35.6       0.0       0.0      17.8
 1 H  pz              0.0       0.0       0.0      11.6      35.1       0.0
 1 H  px              2.4      35.6      12.4       0.0       0.0      17.4
 1 H  py              0.0       0.0       0.0      35.1      11.6       0.0
 1 H  dz2             0.1       1.0       0.5       0.0       0.0       2.5
 1 H  dxz             0.0       0.0       0.0       0.8       2.4       0.0
 1 H  dx2y2           0.2       3.1       1.4       0.0       0.0       7.5
 1 H  dxy             0.0       0.0       0.0       2.4       0.8       0.0
 1 H  f+1             0.0       0.2       0.1       0.0       0.0       1.8
 1 H  f+3             0.0       0.3       0.1       0.0       0.0       2.9
 1 H  f-3             0.0       0.0       0.0       0.1       0.0       0.0

                      6         7         8         9        10        11   
                   3.38888   3.30422   3.30422   4.26155   3.30607   0.52943
                   0.00013   0.00011   0.00011   0.00009   0.00008   0.00000
                  --------  --------  --------  --------  --------  --------
 0 H  s               2.6       0.0       0.0      20.2       0.0      47.6
 0 H  pz              0.0      18.4       0.0       0.0       0.0       0.0
 0 H  px             23.7       0.0       0.0      15.0       0.0       0.3
 0 H  py              0.0       0.0      18.4       0.0       0.0       0.0
 0 H  dz2             4.7       0.0       0.0       3.0      34.4       0.5
 0 H  dxz             0.0      26.2       0.0       0.0       0.0       0.0
 0 H  dx2y2          14.2       0.0       0.0       9.1      11.5       1.5
 0 H  dxy             0.0       0.0      26.2       0.0       0.0       0.0
 0 H  f0              0.0       1.9       0.0       0.0       0.0       0.0
 0 H  f+1             1.8       0.0       0.0       1.0       2.6       0.0
 0 H  f-1             0.0       0.0       0.3       0.0       0.0       0.0
 0 H  f+2             0.0       3.3       0.0       0.0       0.0       0.0
 0 H  f+3             3.0       0.0       0.0       1.6       1.6       0.0
 0 H  f-3             0.0       0.0       4.9       0.0       0.0       0.0
 1 H  s               2.6       0.0       0.0      20.2       0.0      47.6
 1 H  pz              0.0      18.4       0.0       0.0       0.0       0.0
 1 H  px             23.7       0.0       0.0      15.0       0.0       0.3
 1 H  py              0.0       0.0      18.4       0.0       0.0       0.0
 1 H  dz2             4.7       0.0       0.0       3.0      34.4       0.5
 1 H  dxz             0.0      26.2       0.0       0.0       0.0       0.0
 1 H  dx2y2          14.2       0.0       0.0       9.1      11.5       1.5
 1 H  dxy             0.0       0.0      26.2       0.0       0.0       0.0
 1 H  f0              0.0       1.9       0.0       0.0       0.0       0.0
 1 H  f+1             1.8       0.0       0.0       1.0       2.6       0.0
 1 H  f-1             0.0       0.0       0.3       0.0       0.0       0.0
 1 H  f+2             0.0       3.3       0.0       0.0       0.0       0.0
 1 H  f+3             3.0       0.0       0.0       1.6       1.6       0.0
 1 H  f-3             0.0       0.0       4.9       0.0       0.0       0.0

                     12        13        14        15        16        17   
                   0.74910   0.78116   1.15807   1.15807   1.27147   1.57535
                   0.00000   0.00000   0.00000   0.00000   0.00000   0.00000
                  --------  --------  --------  --------  --------  --------
 0 H  s              46.8      44.9       0.0       0.0       7.3       0.0
 0 H  pz              0.0       0.0       0.0      48.8       0.0      47.7
 0 H  px              3.1       3.7       0.0       0.0      40.0       0.0
 0 H  py              0.0       0.0      48.8       0.0       0.0       0.1
 0 H  dz2             0.0       0.3       0.0       0.0       0.6       0.0
 0 H  dxz             0.0       0.0       0.0       1.1       0.0       2.0
 0 H  dx2y2           0.1       0.9       0.0       0.0       1.8       0.0
 0 H  dxy             0.0       0.0       1.1       0.0       0.0       0.0
 0 H  f+1             0.0       0.1       0.0       0.0       0.1       0.0
 0 H  f+2             0.0       0.0       0.0       0.1       0.0       0.1
 0 H  f+3             0.0       0.1       0.0       0.0       0.2       0.0
 0 H  f-3             0.0       0.0       0.1       0.0       0.0       0.0
 1 H  s              46.8      44.9       0.0       0.0       7.3       0.0
 1 H  pz              0.0       0.0       0.0      48.8       0.0      47.7
 1 H  px              3.1       3.7       0.0       0.0      40.0       0.0
 1 H  py              0.0       0.0      48.8       0.0       0.0       0.1
 1 H  dz2             0.0       0.3       0.0       0.0       0.6       0.0
 1 H  dxz             0.0       0.0       0.0       1.1       0.0       2.0
 1 H  dx2y2           0.1       0.9       0.0       0.0       1.8       0.0
 1 H  dxy             0.0       0.0       1.1       0.0       0.0       0.0
 1 H  f+1             0.0       0.1       0.0       0.0       0.1       0.0
 1 H  f+2             0.0       0.0       0.0       0.1       0.0       0.1
 1 H  f+3             0.0       0.1       0.0       0.0       0.2       0.0
 1 H  f-3             0.0       0.0       0.1       0.0       0.0       0.0

                     18        19        20        21        22        23   
                   1.57535   2.00037   2.55845   2.55845   2.61063   2.61063
                   0.00000   0.00000   0.00000   0.00000   0.00000   0.00000
                  --------  --------  --------  --------  --------  --------
 0 H  pz              0.1       0.0       0.0       0.0       4.4       0.0
 0 H  py             47.7       0.0       0.0       0.0       0.0       4.4
 0 H  dz2             0.0       0.0      32.0       0.0       0.0       0.0
 0 H  dxz             0.0       0.0       0.0       0.0      40.3       0.2
 0 H  dyz             0.0      49.9       0.0      42.7       0.0       0.0
 0 H  dx2y2           0.0       0.0      10.7       0.0       0.0       0.0
 0 H  dxy             2.0       0.0       0.0       0.0       0.2      40.3
 0 H  f0              0.0       0.0       0.0       0.0       1.9       0.0
 0 H  f+1             0.0       0.0       4.6       0.0       0.0       0.0
 0 H  f-1             0.0       0.0       0.0       0.0       0.0       0.3
 0 H  f+2             0.0       0.0       0.0       0.0       3.2       0.0
 0 H  f-2             0.0       0.1       0.0       7.3       0.0       0.0
 0 H  f+3             0.0       0.0       2.7       0.0       0.0       0.0
 0 H  f-3             0.2       0.0       0.0       0.0       0.0       4.8
 1 H  pz              0.1       0.0       0.0       0.0       4.4       0.0
 1 H  py             47.7       0.0       0.0       0.0       0.0       4.4
 1 H  dz2             0.0       0.0      32.0       0.0       0.0       0.0
 1 H  dxz             0.0       0.0       0.0       0.0      40.3       0.2
 1 H  dyz             0.0      49.9       0.0      42.7       0.0       0.0
 1 H  dx2y2           0.0       0.0      10.7       0.0       0.0       0.0
 1 H  dxy             2.0       0.0       0.0       0.0       0.2      40.3
 1 H  f0              0.0       0.0       0.0       0.0       1.9       0.0
 1 H  f+1             0.0       0.0       4.6       0.0       0.0       0.0
 1 H  f-1             0.0       0.0       0.0       0.0       0.0       0.3
 1 H  f+2             0.0       0.0       0.0       0.0       3.2       0.0
 1 H  f-2             0.0       0.1       0.0       7.3       0.0       0.0
 1 H  f+3             0.0       0.0       2.7       0.0       0.0       0.0
 1 H  f-3             0.2       0.0       0.0       0.0       0.0       4.8

                     24        25        26        27        28        29   
                   2.64928   2.75857   3.37914   3.37914   5.11896   5.77649
                   0.00000   0.00000   0.00000   0.00000   0.00000   0.00000
                  --------  --------  --------  --------  --------  --------
 0 H  s              13.1      10.3       0.0       0.0       0.8       0.0
 0 H  pz              0.0       0.0       0.0       8.0       0.0       0.0
 0 H  px             15.7      14.6       0.0       0.0       4.4       0.0
 0 H  py              0.0       0.0       8.0       0.0       0.0       0.0
 0 H  dz2             4.4       5.1       0.0       0.0       6.0       0.0
 0 H  dxz             0.0       0.0       0.0      32.9       0.0       0.0
 0 H  dx2y2          13.3      15.4       0.0       0.0      18.0       0.0
 0 H  dxy             0.0       0.0      32.9       0.0       0.0       0.0
 0 H  f0              0.0       0.0       0.0       3.4       0.0      23.4
 0 H  f+1             1.3       1.7       0.0       0.0       7.8       0.0
 0 H  f-1             0.0       0.0       0.6       0.0       0.0      11.9
 0 H  f+2             0.0       0.0       0.0       5.7       0.0      14.0
 0 H  f+3             2.1       2.8       0.0       0.0      13.0       0.0
 0 H  f-3             0.0       0.0       8.6       0.0       0.0       0.8
 1 H  s              13.1      10.3       0.0       0.0       0.8       0.0
 1 H  pz              0.0       0.0       0.0       8.0       0.0       0.0
 1 H  px             15.7      14.6       0.0       0.0       4.4       0.0
 1 H  py              0.0       0.0       8.0       0.0       0.0       0.0
 1 H  dz2             4.4       5.1       0.0       0.0       6.0       0.0
 1 H  dxz             0.0       0.0       0.0      32.9       0.0       0.0
 1 H  dx2y2          13.3      15.4       0.0       0.0      18.0       0.0
 1 H  dxy             0.0       0.0      32.9       0.0       0.0       0.0
 1 H  f0              0.0       0.0       0.0       3.4       0.0      23.4
 1 H  f+1             1.3       1.7       0.0       0.0       7.8       0.0
 1 H  f-1             0.0       0.0       0.6       0.0       0.0      11.9
 1 H  f+2             0.0       0.0       0.0       5.7       0.0      14.0
 1 H  f+3             2.1       2.8       0.0       0.0      13.0       0.0
 1 H  f-3             0.0       0.0       8.6       0.0       0.0       0.8

                     30        31        32        33        34        35   
                   5.77649   5.91877   6.17456   6.34131   6.87556   6.87556
                   0.00000   0.00000   0.00000   0.00000   0.00000   0.00000
                  --------  --------  --------  --------  --------  --------
 0 H  s               0.0       0.0      21.1      13.4       0.0       0.0
 0 H  px              0.0       0.0      15.4      33.9       0.0       0.0
 0 H  dz2             0.0      22.3       3.4       0.3      10.4       0.0
 0 H  dyz             0.0       0.0       0.0       0.0       0.0      13.8
 0 H  dx2y2           0.0       7.4      10.2       0.8       3.5       0.0
 0 H  f0              7.9       0.0       0.0       0.0       0.0       0.0
 0 H  f+1             0.0      12.7       0.0       0.7      22.6       0.0
 0 H  f-1            35.0       0.0       0.0       0.0       0.0       0.0
 0 H  f+2             4.7       0.0       0.0       0.0       0.0       0.0
 0 H  f-2             0.0       0.0       0.0       0.0       0.0      36.2
 0 H  f+3             0.0       7.6       0.0       1.1      13.6       0.0
 0 H  f-3             2.3       0.0       0.0       0.0       0.0       0.0
 1 H  s               0.0       0.0      21.1      13.4       0.0       0.0
 1 H  px              0.0       0.0      15.4      33.9       0.0       0.0
 1 H  dz2             0.0      22.3       3.4       0.3      10.4       0.0
 1 H  dyz             0.0       0.0       0.0       0.0       0.0      13.8
 1 H  dx2y2           0.0       7.4      10.2       0.8       3.5       0.0
 1 H  f0              7.9       0.0       0.0       0.0       0.0       0.0
 1 H  f+1             0.0      12.7       0.0       0.7      22.6       0.0
 1 H  f-1            35.0       0.0       0.0       0.0       0.0       0.0
 1 H  f+2             4.7       0.0       0.0       0.0       0.0       0.0
 1 H  f-2             0.0       0.0       0.0       0.0       0.0      36.2
 1 H  f+3             0.0       7.6       0.0       1.1      13.6       0.0
 1 H  f-3             2.3       0.0       0.0       0.0       0.0       0.0

                     36        37        38        39        40        41   
                   6.90309   7.01597   7.01597   7.11114   7.11114   7.11940
                   0.00000   0.00000   0.00000   0.00000   0.00000   0.00000
                  --------  --------  --------  --------  --------  --------
 0 H  pz              0.0      25.4       0.1       0.1       7.0       0.0
 0 H  py              0.0       0.1      25.4       7.0       0.1       0.0
 0 H  dxz             0.0       0.7       0.0       0.1       7.5       0.0
 0 H  dyz             4.6       0.0       0.0       0.0       0.0       0.0
 0 H  dxy             0.0       0.0       0.7       7.5       0.1       0.0
 0 H  f0              0.0       8.8       0.0       0.2      13.1      31.3
 0 H  f-1             0.0       0.0       1.5       2.2       0.0       0.0
 0 H  f+2             0.0      14.8       0.1       0.3      21.9      18.7
 0 H  f-2            45.4       0.0       0.0       0.0       0.0       0.0
 0 H  f-3             0.0       0.1      22.2      32.8       0.4       0.0
 1 H  pz              0.0      25.4       0.1       0.1       7.0       0.0
 1 H  py              0.0       0.1      25.4       7.0       0.1       0.0
 1 H  dxz             0.0       0.7       0.0       0.1       7.5       0.0
 1 H  dyz             4.6       0.0       0.0       0.0       0.0       0.0
 1 H  dxy             0.0       0.0       0.7       7.5       0.1       0.0
 1 H  f0              0.0       8.8       0.0       0.2      13.1      31.3
 1 H  f-1             0.0       0.0       1.5       2.2       0.0       0.0
 1 H  f+2             0.0      14.8       0.1       0.3      21.9      18.7
 1 H  f-2            45.4       0.0       0.0       0.0       0.0       0.0
 1 H  f-3             0.0       0.1      22.2      32.8       0.4       0.0

                     42        43        44        45        46        47   
                   7.11940   7.22924   7.22924   7.55418   7.57411   7.89551
                   0.00000   0.00000   0.00000   0.00000   0.00000   0.00000
                  --------  --------  --------  --------  --------  --------
 0 H  s               0.0       0.0       0.0       2.3       0.0       0.0
 0 H  pz              0.0       9.8       0.1       0.0       0.0       0.0
 0 H  px              0.0       0.0       0.0       4.5       0.0       0.0
 0 H  py              0.0       0.1       9.8       0.0       0.0       0.0
 0 H  dz2             0.0       0.0       0.0       3.7      18.3       0.0
 0 H  dxz             0.0      30.2       0.4       0.0       0.0       0.0
 0 H  dyz             0.0       0.0       0.0       0.0       0.0      45.5
 0 H  dx2y2           0.0       0.0       0.0      11.2       6.1       0.0
 0 H  dxy             0.0       0.4      30.2       0.0       0.0       0.0
 0 H  f0              0.0       3.5       0.1       0.0       0.0       0.0
 0 H  f+1             0.0       0.0       0.0      10.6      16.0       0.0
 0 H  f-1            46.8       0.0       0.6       0.0       0.0       0.0
 0 H  f+2             0.0       5.8       0.1       0.0       0.0       0.0
 0 H  f-2             0.0       0.0       0.0       0.0       0.0       4.5
 0 H  f+3             0.0       0.0       0.0      17.7       9.6       0.0
 0 H  f-3             3.2       0.1       8.7       0.0       0.0       0.0
 1 H  s               0.0       0.0       0.0       2.3       0.0       0.0
 1 H  pz              0.0       9.8       0.1       0.0       0.0       0.0
 1 H  px              0.0       0.0       0.0       4.5       0.0       0.0
 1 H  py              0.0       0.1       9.8       0.0       0.0       0.0
 1 H  dz2             0.0       0.0       0.0       3.7      18.3       0.0
 1 H  dxz             0.0      30.2       0.4       0.0       0.0       0.0
 1 H  dyz             0.0       0.0       0.0       0.0       0.0      45.5
 1 H  dx2y2           0.0       0.0       0.0      11.2       6.1       0.0
 1 H  dxy             0.0       0.4      30.2       0.0       0.0       0.0
 1 H  f0              0.0       3.5       0.1       0.0       0.0       0.0
 1 H  f+1             0.0       0.0       0.0      10.6      16.0       0.0
 1 H  f-1            46.8       0.0       0.6       0.0       0.0       0.0
 1 H  f+2             0.0       5.8       0.1       0.0       0.0       0.0
 1 H  f-2             0.0       0.0       0.0       0.0       0.0       4.5
 1 H  f+3             0.0       0.0       0.0      17.7       9.6       0.0
 1 H  f-3             3.2       0.1       8.7       0.0       0.0       0.0

                     48        49        50        51        52        53   
                   8.05985   8.50580   8.50580  10.66521  10.66521  11.37227
                   0.00000   0.00000   0.00000   0.00000   0.00000   0.00000
                  --------  --------  --------  --------  --------  --------
 0 H  s               1.6       0.0       0.0       0.0       0.0       0.0
 0 H  pz              0.0       0.1      47.3      15.7       0.0       0.0
 0 H  px              3.2       0.0       0.0       0.0       0.0       0.0
 0 H  py              0.0      47.3       0.1       0.0      15.7       0.0
 0 H  dz2             6.6       0.0       0.0       0.0       0.0      32.6
 0 H  dxz             0.0       0.0       2.6      22.9       0.0       0.0
 0 H  dx2y2          19.9       0.0       0.0       0.0       0.0      10.9
 0 H  dxy             0.0       2.6       0.0       0.0      22.9       0.0
 0 H  f0              0.0       0.0       0.0       4.3       0.0       0.0
 0 H  f+1             7.0       0.0       0.0       0.0       0.0       4.1
 0 H  f-1             0.0       0.0       0.0       0.0       0.7       0.0
 0 H  f+2             0.0       0.0       0.0       7.1       0.0       0.0
 0 H  f+3            11.7       0.0       0.0       0.0       0.0       2.4
 0 H  f-3             0.0       0.0       0.0       0.0      10.6       0.0
 1 H  s               1.6       0.0       0.0       0.0       0.0       0.0
 1 H  pz              0.0       0.1      47.3      15.7       0.0       0.0
 1 H  px              3.2       0.0       0.0       0.0       0.0       0.0
 1 H  py              0.0      47.3       0.1       0.0      15.7       0.0
 1 H  dz2             6.6       0.0       0.0       0.0       0.0      32.6
 1 H  dxz             0.0       0.0       2.6      22.9       0.0       0.0
 1 H  dx2y2          19.9       0.0       0.0       0.0       0.0      10.9
 1 H  dxy             0.0       2.6       0.0       0.0      22.9       0.0
 1 H  f0              0.0       0.0       0.0       4.3       0.0       0.0
 1 H  f+1             7.0       0.0       0.0       0.0       0.0       4.1
 1 H  f-1             0.0       0.0       0.0       0.0       0.7       0.0
 1 H  f+2             0.0       0.0       0.0       7.1       0.0       0.0
 1 H  f+3            11.7       0.0       0.0       0.0       0.0       2.4
 1 H  f-3             0.0       0.0       0.0       0.0      10.6       0.0

                     54        55        56        57        58        59   
                  11.37227  11.99254  15.08087  15.08087  15.67292  18.50543
                   0.00000   0.00000   0.00000   0.00000   0.00000   0.00000
                  --------  --------  --------  --------  --------  --------
 0 H  s               0.0      11.2       0.0       0.0      21.8      24.4
 0 H  pz              0.0       0.0       0.1      20.2       0.0       0.0
 0 H  px              0.0      21.0       0.0       0.0      21.8      11.8
 0 H  py              0.0       0.0      20.2       0.1       0.0       0.0
 0 H  dz2             0.0       2.6       0.0       0.0       1.3       3.2
 0 H  dxz             0.0       0.0       0.2      29.4       0.0       0.0
 0 H  dyz            43.5       0.0       0.0       0.0       0.0       0.0
 0 H  dx2y2           0.0       7.9       0.0       0.0       3.9       9.6
 0 H  dxy             0.0       0.0      29.4       0.2       0.0       0.0
 0 H  f+1             0.0       2.7       0.0       0.0       0.5       0.4
 0 H  f-2             6.5       0.0       0.0       0.0       0.0       0.0
 0 H  f+3             0.0       4.5       0.0       0.0       0.8       0.6
 0 H  f-3             0.0       0.0       0.1       0.0       0.0       0.0
 1 H  s               0.0      11.2       0.0       0.0      21.8      24.4
 1 H  pz              0.0       0.0       0.1      20.2       0.0       0.0
 1 H  px              0.0      21.0       0.0       0.0      21.8      11.8
 1 H  py              0.0       0.0      20.2       0.1       0.0       0.0
 1 H  dz2             0.0       2.6       0.0       0.0       1.3       3.2
 1 H  dxz             0.0       0.0       0.2      29.4       0.0       0.0
 1 H  dyz            43.5       0.0       0.0       0.0       0.0       0.0
 1 H  dx2y2           0.0       7.9       0.0       0.0       3.9       9.6
 1 H  dxy             0.0       0.0      29.4       0.2       0.0       0.0
 1 H  f+1             0.0       2.7       0.0       0.0       0.5       0.4
 1 H  f-2             6.5       0.0       0.0       0.0       0.0       0.0
 1 H  f+3             0.0       4.5       0.0       0.0       0.8       0.6
 1 H  f-3             0.0       0.0       0.1       0.0       0.0       0.0


----------------------------
LOEWDIN REDUCED ACTIVE MOs  
----------------------------

                      0         1         2         3         4         5   
                  -0.67429   0.96903   1.05991   1.28140   1.28140   3.66781
                   1.97513   0.00956   0.00691   0.00386   0.00386   0.00015
                  --------  --------  --------  --------  --------  --------
 0 H  s              47.2       9.8      35.6       0.0       0.0      17.8
 0 H  pz              0.0       0.0       0.0      11.6      35.1       0.0
 0 H  px              2.4      35.6      12.4       0.0       0.0      17.4
 0 H  py              0.0       0.0       0.0      35.1      11.6       0.0
 0 H  dx2y2           0.2       3.1       1.4       0.0       0.0       7.5
 1 H  s              47.2       9.8      35.6       0.0       0.0      17.8
 1 H  pz              0.0       0.0       0.0      11.6      35.1       0.0
 1 H  px              2.4      35.6      12.4       0.0       0.0      17.4
 1 H  py              0.0       0.0       0.0      35.1      11.6       0.0
 1 H  dx2y2           0.2       3.1       1.4       0.0       0.0       7.5

                      6         7         8         9        10        11   
                   3.38888   3.30422   3.30422   4.26155   3.30607   0.52943
                   0.00013   0.00011   0.00011   0.00009   0.00008   0.00000
                  --------  --------  --------  --------  --------  --------
 0 H  s               2.6       0.0       0.0      20.2       0.0      47.6
 0 H  pz              0.0      18.4       0.0       0.0       0.0       0.0
 0 H  px             23.7       0.0       0.0      15.0       0.0       0.3
 0 H  py              0.0       0.0      18.4       0.0       0.0       0.0
 0 H  dz2             4.7       0.0       0.0       3.0      34.4       0.5
 0 H  dxz             0.0      26.2       0.0       0.0       0.0       0.0
 0 H  dx2y2          14.2       0.0       0.0       9.1      11.5       1.5
 0 H  dxy             0.0       0.0      26.2       0.0       0.0       0.0
 1 H  s               2.6       0.0       0.0      20.2       0.0      47.6
 1 H  pz              0.0      18.4       0.0       0.0       0.0       0.0
 1 H  px             23.7       0.0       0.0      15.0       0.0       0.3
 1 H  py              0.0       0.0      18.4       0.0       0.0       0.0
 1 H  dz2             4.7       0.0       0.0       3.0      34.4       0.5
 1 H  dxz             0.0      26.2       0.0       0.0       0.0       0.0
 1 H  dx2y2          14.2       0.0       0.0       9.1      11.5       1.5
 1 H  dxy             0.0       0.0      26.2       0.0       0.0       0.0

------------------------------------------------------------------------------
                           ORCA POPULATION ANALYSIS
------------------------------------------------------------------------------
Input electron density              ... H2_0_1_CASSCF-2-12_def2-qzvpp.sp.scfp
BaseName (.gbw .S,...)              ... H2_0_1_CASSCF-2-12_def2-qzvpp.sp

                    ********************************
                    * MULLIKEN POPULATION ANALYSIS *
                    ********************************

-----------------------
MULLIKEN ATOMIC CHARGES
-----------------------
   0 H :   -0.000000
   1 H :    0.000000
Sum of atomic charges:   -0.0000000

--------------------------------
MULLIKEN REDUCED ORBITAL CHARGES
--------------------------------
  0 H s       :     0.982810  s :     0.982810
      pz      :     0.001895  p :     0.016866
      px      :     0.013076
      py      :     0.001895
      dz2     :     0.000052  d :     0.000307
      dxz     :     0.000089
      dyz     :     0.000000
      dx2y2   :     0.000077
      dxy     :     0.000089
      f0      :     0.000001  f :     0.000016
      f+1     :     0.000006
      f-1     :     0.000000
      f+2     :     0.000001
      f-2     :     0.000000
      f+3     :     0.000007
      f-3     :     0.000002
  1 H s       :     0.982810  s :     0.982810
      pz      :     0.001895  p :     0.016866
      px      :     0.013076
      py      :     0.001895
      dz2     :     0.000052  d :     0.000307
      dxz     :     0.000089
      dyz     :     0.000000
      dx2y2   :     0.000077
      dxy     :     0.000089
      f0      :     0.000001  f :     0.000016
      f+1     :     0.000006
      f-1     :     0.000000
      f+2     :     0.000001
      f-2     :     0.000000
      f+3     :     0.000007
      f-3     :     0.000002

------------------------
MULLIKEN OVERLAP CHARGES
------------------------
B(  0-H ,  1-H ) :   0.8987 


                     *******************************
                     * LOEWDIN POPULATION ANALYSIS *
                     *******************************

----------------------
LOEWDIN ATOMIC CHARGES
----------------------
   0 H :   -0.000000
   1 H :    0.000000

-------------------------------
LOEWDIN REDUCED ORBITAL CHARGES
-------------------------------
  0 H s       :     0.936058  s :     0.936058
      pz      :     0.001822  p :     0.056117
      px      :     0.052473
      py      :     0.001822
      dz2     :     0.001724  d :     0.007125
      dxz     :     0.000152
      dyz     :     0.000000
      dx2y2   :     0.005095
      dxy     :     0.000152
      f0      :     0.000005  f :     0.000700
      f+1     :     0.000255
      f-1     :     0.000001
      f+2     :     0.000007
      f-2     :     0.000000
      f+3     :     0.000422
      f-3     :     0.000011
  1 H s       :     0.936058  s :     0.936058
      pz      :     0.001822  p :     0.056117
      px      :     0.052473
      py      :     0.001822
      dz2     :     0.001724  d :     0.007125
      dxz     :     0.000152
      dyz     :     0.000000
      dx2y2   :     0.005095
      dxy     :     0.000152
      f0      :     0.000005  f :     0.000700
      f+1     :     0.000255
      f-1     :     0.000001
      f+2     :     0.000007
      f-2     :     0.000000
      f+3     :     0.000422
      f-3     :     0.000011

---------------------------------
LOEWDIN BOND ORDERS (THRESH 0.050000)
---------------------------------
B(  0-H ,  1-H ) :   0.9751 


                      *****************************
                      * MAYER POPULATION ANALYSIS *
                      *****************************

  NA   - Mulliken gross atomic population
  ZA   - Total nuclear charge
  QA   - Mulliken gross atomic charge
  VA   - Mayer's total valence
  BVA  - Mayer's bonded valence
  FA   - Mayer's free valence

  ATOM       NA         ZA         QA         VA         BVA        FA
  0 H      1.0000     1.0000    -0.0000     1.0219     0.9725     0.0494
  1 H      1.0000     1.0000     0.0000     1.0219     0.9725     0.0494

  Mayer bond orders larger than 0.100000
B(  0-H ,  1-H ) :   0.9725 


-------------------------------------------------------------
 Forming the transition density       ... done in 0.001856 sec
-------------------------------------------------------------



==========================================
CASSCF UV, CD spectra and dipole moments
==========================================
-------------------
ABSORPTION SPECTRUM
-------------------

Center of mass           = (  0.4736,  0.0000,  0.0000)
Nuclear contribution to the dipole moment =     0.000000,    0.000000,    0.000000 au

Calculating the dipole integrals                  ... done
Transforming integrals                            ... done
Calculating the Linear Momentum integrals         ... done
Transforming integrals                            ... done
Calculating the Angular Momentum integrals        ... done
Transforming integrals                            ... done

Ground state mult:    1
Ground state block:   0
Ground state root:    0


------------------------------------------------------------------------------
                                 DIPOLE MOMENTS
------------------------------------------------------------------------------
  Root  Block           TX        TY        TZ           |T|
                      (Debye)   (Debye)   (Debye)      (Debye)
------------------------------------------------------------------------------
    0    0           -0.00000   0.00000  -0.00000      0.00000

--------------
CASSCF TIMINGS
--------------

Total time                       ...        3.6 sec
Sum of individual times          ...        3.4 sec ( 93.6%)

Calculation of AO operators
   F(Core) operator              ...        0.1 sec (  1.5%)
   G(Act) operator               ...        0.9 sec ( 24.4%)
   J(AO) operators               ...        0.0 sec (  0.0%)
Calculation of MO transformed quantities
   J(MO) operators               ...        2.1 sec ( 57.9%)
   (pq|rs) integrals             ...        0.0 sec (  0.0%)
   AO->MO one electron integrals ...        0.0 sec (  0.5%)
Configuration interaction steps
   CI-setup phase                ...        0.0 sec (  0.0%)
   CI-solution phase             ...        0.3 sec (  7.0%)
   Generation of densities       ...        0.0 sec (  0.7%)
Orbital improvement steps
   Orbital gradient              ...        0.0 sec (  1.2%)
   O(1) converger                ...        0.0 sec (  0.2%)
Properties                       ...        0.0 sec (  0.2%)
   SOC integral calculation      ...        0.0 sec (  0.0%)
   SSC RMEs (incl. integrals)    ...        0.0 sec (  0.0%)
   SOC RMEs                      ...        0.0 sec (  0.0%)

-------------------------   --------------------
FINAL SINGLE POINT ENERGY        -1.102479905843
-------------------------   --------------------

Storing actual gbw-file in H2_0_1_CASSCF-2-12_def2-qzvpp.sp.001.gbw ... done

                            ***************************************
                            *     ORCA property calculations      *
                            ***************************************

                                    ---------------------
                                    Active property flags
                                    ---------------------
   (+) Dipole Moment


------------------------------------------------------------------------------
                       ORCA ELECTRIC PROPERTIES CALCULATION
------------------------------------------------------------------------------

Dipole Moment Calculation                       ... on
Quadrupole Moment Calculation                   ... off
Polarizability Calculation                      ... off
GBWName                                         ... H2_0_1_CASSCF-2-12_def2-qzvpp.sp.gbw
Electron density file                           ... H2_0_1_CASSCF-2-12_def2-qzvpp.sp.scfp
The origin for moment calculation is the CENTER OF MASS  = ( 0.473553,  0.000000  0.000000)

-------------
DIPOLE MOMENT
-------------
                                X             Y             Z
Electronic contribution:     -0.00000       0.00000      -0.00000
Nuclear contribution   :      0.00000       0.00000       0.00000
                        -----------------------------------------
Total Dipole Moment    :     -0.00000       0.00000      -0.00000
                        -----------------------------------------
Magnitude (a.u.)       :      0.00000
Magnitude (Debye)      :      0.00000



--------------------
Rotational spectrum 
--------------------
 
Rotational constants in cm-1:     0.000000   133.157724   133.157724 
Rotational constants in MHz :     0.000000 3991968.149099 3991968.149099 

 Dipole components along the rotational axes: 
x,y,z [a.u.] :    -0.000000     0.000000    -0.000000 
x,y,z [Debye]:    -0.000000     0.000000    -0.000000 

 

         *************************************************************
                                TRAJECTORY STEP   2
                RHH  :   0.60842987
         *************************************************************
---------------------------------
CARTESIAN COORDINATES (ANGSTROEM)
---------------------------------
  H      0.000000    0.000000    0.000000
  H      0.608430    0.000000    0.000000

----------------------------
CARTESIAN COORDINATES (A.U.)
----------------------------
  NO LB      ZA    FRAG     MASS         X           Y           Z
   0 H     1.0000    0     1.008    0.000000    0.000000    0.000000
   1 H     1.0000    0     1.008    1.149766    0.000000    0.000000

--------------------------------
INTERNAL COORDINATES (ANGSTROEM)
--------------------------------
 H      0   0   0     0.000000000000     0.00000000     0.00000000
 H      1   0   0     0.608429869077     0.00000000     0.00000000

---------------------------
INTERNAL COORDINATES (A.U.)
---------------------------
 H      0   0   0     0.000000000000     0.00000000     0.00000000
 H      1   0   0     1.149765824252     0.00000000     0.00000000


Diagonalization of the overlap matrix:
Smallest eigenvalue                        ... 8.441e-05
Time for diagonalization                   ...    0.002 sec
Threshold for overlap eigenvalues          ... 1.000e-08
Number of eigenvalues below threshold      ... 0
Time for construction of square roots      ...    0.001 sec
Total time needed                          ...    0.003 sec



 ... the calculation is a CASSCF calculation -I'm leaving here GOOD LUCK!!!

-------------------------------------------------------------------------------
                              ORCA-CASSCF
-------------------------------------------------------------------------------

Setting up the integral package       ... done
Building the CAS space                ... done (78 configurations for Mult=1)
----------------
GENERAL CI SETUP
----------------

Checking configurations                         ... done
Determining NSOMO,NDOMO and NVMO                ... done
Building up the tree                            ... done
Building N-1 electron tree                      ... done
Building RI configuration space                 ... done
Analyzing the RI configuration space            ... done
Determining NDOMO,NSOMO,NVMO for RI space       ... done
Determination of address arrays                 ... done
Looking for max. no of open shells              ... done
Setting up coupling coefficient container       ... Memory for address arrays  		      ... done
Make address arrays			      ... done
Memory for buffers 			      ... done
Setting up spin-function prototypes	      ... (MAXOPEN=2) 0 2 4 done
Trivial cases - DOMO's			      ... done (  0.0 MB)
Number of open shells			    ...  0
domo->virtual excitations			... done (  0.0 MB)
domo->somo excitations				... done (  0.0 MB)
somo->virtual excitations			... done (  0.0 MB)
somo->somo excitations				... done (  0.0 MB)
Number of open shells			    ...  2
domo->virtual excitations			... done (  0.0 MB)
domo->somo excitations				... done (  0.0 MB)
somo->virtual excitations			... done (  0.0 MB)
somo->somo excitations				... done (  0.0 MB)
Coupling container construction done
done
Now recording sub-block dimensions              ... done
Memory used for TGeneralCI arrays =     0.0 MB
  Original space  =     0.0
  RI       space  =     0.0
  Address arrays  =     0.0
  Coupling coeffs =     0.0
Multiplicity                          ...       1
# of electrons                        ...       2
# of orbitals                         ...      12
# of roots requested                  ...       1
Configuration space:
# of configurations                   ...      78
# of CSF's                            ...      78
# of rejected configurations          ...       0
Min. # of SOMOs                       ...       0
Max. # of SOMOs                       ...       2
Max. # of DOMOs                       ...       1
Max. # of VMOs                        ...      11
RI Configuration space:
# of configurations                   ...      78
# of CSF's                            ...      78
# of rejected configurations          ...       0
Min. # of SOMOs                       ...       0
Max. # of SOMOs                       ...       2
Max. # of DOMOs                       ...       1
Max. # of VMOs                        ...      11
(N-1) Electron Configuration space:
# of configurations                   ...      12
CSF dimensions:
      0 SOMOs give     1 CSFs
      2 SOMOs give     1 CSFs


SYSTEM-SPECIFIC SETTINGS:
Number of active electrons          ...    2
Number of active orbitals           ...   12
Total number of electrons           ...    2
Total number of orbitals            ...   60

Determined orbital ranges:
   Internal       0 -   -1 (   0 orbitals)
   Active         0 -   11 (  12 orbitals)
   External      12 -   59 (  48 orbitals)
Number of rotation parameters      ...    576

CI-STEP:
CI strategy                         ... General CI
Number of multiplicity blocks       ...    1
BLOCK  1 WEIGHT=   1.0000
  Multiplicity                      ...    1
  #(Configurations)                 ...   78
  #(CSFs)                           ...   78
  #(Roots)                          ...    1
    ROOT=0 WEIGHT=    1.000000

  PrintLevel                        ...    1
  N(GuessMat)                       ...       512
  MaxDim(CI)                        ...        10
  MaxIter(CI)                       ...        64
  Energy Tolerance CI               ...  2.50e-09
  Residual Tolerance CI             ...  2.50e-09
  Shift(CI)                         ...  1.00e-04

INTEGRAL-TRANSFORMATION-STEP:
  Algorithm                         ... EXACT

ORBITAL-IMPROVEMENT-STEP:
  Algorithm                         ... SuperCI(PT)
  Default Parametrization           ... CAYLEY
  Act-Act rotations                 ... depends on algorithm used

  Note: SuperCI(PT) will ignore FreezeIE, FreezeAct and FreezeGrad. In general Default settings are encouraged.
        In conjunction with ShiftUp, ShiftDn or GradScaling the performance of SuperCI(PT) is less optimal.  

  MaxRot                            ... 2.00e-01 
  Max. no of vectors (DIIS)         ... 15
  DThresh (cut-off) metric          ... 1.00e-06
  Switch step at gradient           ...  3.00e-02 
  Switch step at iteration          ...        50   
  Switch step to                    ... SuperCI(PT)    

SCF-SETTINGS:
  Incremental                       ... on
  RIJCOSX approximation             ... off
  RI-JK approximation               ... off
  AO integral handling              ... DIRECT
  Integral Neglect Thresh           ...  2.50e-11
  Primitive cutoff TCut             ...  2.50e-12
  Energy convergence tolerance      ...  2.50e-08
  Orbital gradient convergence      ...  2.50e-04
  Max. number of iterations         ...        75  


FINAL ORBITALS:
  Active   Orbitals                 ... natural 
  Internal Orbitals                 ... canonical 
  External Orbitals                 ... canonical 

------------------
CAS-SCF ITERATIONS
------------------


MACRO-ITERATION   1: 
   --- Inactive Energy E0 = 0.86974232 Eh
CI-ITERATION   0: 
    -1.155750442   0.000000000000 (    0.00)
   CI-PROBLEM SOLVED
   DENSITIES MADE

                 <<<<<<<<<<<<<<<<<<INITIAL CI STATE CHECK>>>>>>>>>>>>>>>>>>

BLOCK  1 MULT= 1 NROOTS= 1 
ROOT   0:  E=      -1.1557504422 Eh
      0.98416 [     0]: 200000000000
      0.00663 [    12]: 020000000000
      0.00308 [    23]: 002000000000

                 <<<<<<<<<<<<<<<<<<INITIAL CI STATE CHECK>>>>>>>>>>>>>>>>>>

   E(CAS)=    -1.155750442 Eh DE=     0.000000000
   --- Energy gap subspaces: Ext-Act = -3.507   Act-Int = 0.600
   N(occ)=  1.97026 0.01327 0.00790 0.00381 0.00381 0.00015 0.00036 0.00012 0.00012 0.00009 0.00008 0.00001
   ||g|| =      0.107340190 Max(G)=     0.098826188 Rot=59,0
   --- Orbital Update [SuperCI(PT)]
   --- Canonicalize Internal Space
   --- Canonicalize External Space
   --- SX_PT (Skipped TA=0 IT=0): ||X|| =      0.897107727 Max(X)(20,11) =     -0.492438687 
   --- SFit(Active Orbitals)

MACRO-ITERATION   2: 
   --- Inactive Energy E0 = 0.86974232 Eh
CI-ITERATION   0: 
    -1.156059371   0.000000000000 (    0.00)
   CI-PROBLEM SOLVED
   DENSITIES MADE
   E(CAS)=    -1.156059371 Eh DE=    -0.000308929
   --- Energy gap subspaces: Ext-Act = -3.291   Act-Int = 0.600
   N(occ)=  1.96946 0.01339 0.00817 0.00399 0.00399 0.00016 0.00037 0.00012 0.00012 0.00010 0.00009 0.00003
   ||g|| =      0.016697770 Max(G)=     0.011488750 Rot=33,0
   --- Orbital Update [SuperCI(PT)]
   --- Canonicalize Internal Space
   --- Canonicalize External Space
   --- SX_PT (Skipped TA=0 IT=0): ||X|| =      0.493654817 Max(X)(12,11) =     -0.317737064 
   --- SFit(Active Orbitals)
   --- Failed to constrain active orbitals due to rotations:
       Rot( 11, 13) with OVL=0.386252
   --- SFit: squared overlap of the active orbitals QMAT=C*CT
                  0          1          2          3          4          5    
      0       0.999994   0.000000   0.000034   0.000000   0.000000   0.000000
      1       0.000000   0.999767  -0.000000   0.000000   0.000000  -0.000917
      2       0.000034  -0.000000   0.999719   0.000000  -0.000000  -0.000000
      3       0.000000   0.000000   0.000000   0.999018   0.000000  -0.000000
      4       0.000000   0.000000  -0.000000   0.000000   0.999018  -0.000000
      5       0.000000  -0.000917  -0.000000  -0.000000  -0.000000   0.995860
      6      -0.000010   0.000000   0.000174  -0.000000  -0.000000   0.000000
      7       0.000000  -0.000000  -0.000000  -0.000000   0.000000  -0.000000
      8      -0.000000   0.000000  -0.000000  -0.000000  -0.000000   0.000000
      9       0.000120  -0.000000  -0.000561   0.000000  -0.000000  -0.000000
     10      -0.000000   0.000000   0.000000  -0.000000  -0.000000   0.000000
     11      -0.000000   0.002554   0.000000  -0.000000  -0.000000   0.013710
                  6          7          8          9         10         11    
      0      -0.000010   0.000000  -0.000000   0.000120  -0.000000  -0.000000
      1       0.000000  -0.000000   0.000000  -0.000000   0.000000   0.002554
      2       0.000174  -0.000000  -0.000000  -0.000561   0.000000   0.000000
      3      -0.000000  -0.000000  -0.000000   0.000000  -0.000000  -0.000000
      4      -0.000000   0.000000  -0.000000  -0.000000  -0.000000  -0.000000
      5       0.000000  -0.000000   0.000000  -0.000000   0.000000   0.013710
      6       0.999563   0.000000  -0.000000  -0.000142  -0.000000  -0.000000
      7       0.000000   0.999283   0.000000   0.000000   0.000000   0.000000
      8      -0.000000   0.000000   0.999283   0.000000  -0.000000  -0.000000
      9      -0.000142   0.000000   0.000000   0.997004  -0.000000   0.000000
     10      -0.000000   0.000000  -0.000000  -0.000000   0.999009  -0.000000
     11      -0.000000   0.000000  -0.000000   0.000000  -0.000000   0.374623

   --- Warning: Active Space composition changed by more than 50% in this iteration. 
                Maybe it will fix itself: Final composition should be checked

MACRO-ITERATION   3: 
   --- Inactive Energy E0 = 0.86974232 Eh
CI-ITERATION   0: 
    -1.156124785   0.000000000000 (    0.00)
   CI-PROBLEM SOLVED
   DENSITIES MADE
   E(CAS)=    -1.156124785 Eh DE=    -0.000065414
   --- Energy gap subspaces: Ext-Act = -4.324   Act-Int = 0.600
   N(occ)=  1.96871 0.01346 0.00848 0.00414 0.00414 0.00017 0.00039 0.00013 0.00013 0.00013 0.00009 0.00003
   ||g|| =      0.008547555 Max(G)=    -0.006527235 Rot=59,0
   --- Orbital Update [SuperCI(PT)]
   --- Canonicalize Internal Space
   --- Canonicalize External Space
   --- SX_PT (Skipped TA=0 IT=0): ||X|| =      0.245009674 Max(X)(12,11) =      0.190992586 
   --- SFit(Active Orbitals)

MACRO-ITERATION   4: 
   --- Inactive Energy E0 = 0.86974232 Eh
CI-ITERATION   0: 
    -1.156130329   0.000000000000 (    0.00)
   CI-PROBLEM SOLVED
   DENSITIES MADE
   E(CAS)=    -1.156130329 Eh DE=    -0.000005544
   --- Energy gap subspaces: Ext-Act = -4.113   Act-Int = 0.600
   N(occ)=  1.96900 0.01345 0.00836 0.00408 0.00408 0.00017 0.00039 0.00013 0.00013 0.00012 0.00009 0.00003
   ||g|| =      0.004627122 Max(G)=     0.003346586 Rot=33,0
   --- Orbital Update [SuperCI(PT)]
   --- Canonicalize Internal Space
   --- Canonicalize External Space
   --- SX_PT (Skipped TA=0 IT=0): ||X|| =      0.187652021 Max(X)(12,11) =     -0.145027697 
   --- SFit(Active Orbitals)

MACRO-ITERATION   5: 
   --- Inactive Energy E0 = 0.86974232 Eh
CI-ITERATION   0: 
    -1.156137123   0.000000000000 (    0.00)
   CI-PROBLEM SOLVED
   DENSITIES MADE
   E(CAS)=    -1.156137123 Eh DE=    -0.000006794
   --- Energy gap subspaces: Ext-Act = -5.063   Act-Int = 0.600
[...]
  Address arrays  =     0.0
  Coupling coeffs =     0.0
Multiplicity                          ...       1
# of electrons                        ...       2
# of orbitals                         ...      12
# of roots requested                  ...       1
Configuration space:
# of configurations                   ...      78
# of CSF's                            ...      78
# of rejected configurations          ...       0
Min. # of SOMOs                       ...       0
Max. # of SOMOs                       ...       2
Max. # of DOMOs                       ...       1
Max. # of VMOs                        ...      11
RI Configuration space:
# of configurations                   ...      78
# of CSF's                            ...      78
# of rejected configurations          ...       0
Min. # of SOMOs                       ...       0
Max. # of SOMOs                       ...       2
Max. # of DOMOs                       ...       1
Max. # of VMOs                        ...      11
(N-1) Electron Configuration space:
# of configurations                   ...      12
CSF dimensions:
      0 SOMOs give     1 CSFs
      2 SOMOs give     1 CSFs


SYSTEM-SPECIFIC SETTINGS:
Number of active electrons          ...    2
Number of active orbitals           ...   12
Total number of electrons           ...    2
Total number of orbitals            ...   60

Determined orbital ranges:
   Internal       0 -   -1 (   0 orbitals)
   Active         0 -   11 (  12 orbitals)
   External      12 -   59 (  48 orbitals)
Number of rotation parameters      ...    576

CI-STEP:
CI strategy                         ... General CI
Number of multiplicity blocks       ...    1
BLOCK  1 WEIGHT=   1.0000
  Multiplicity                      ...    1
  #(Configurations)                 ...   78
  #(CSFs)                           ...   78
  #(Roots)                          ...    1
    ROOT=0 WEIGHT=    1.000000

  PrintLevel                        ...    1
  N(GuessMat)                       ...       512
  MaxDim(CI)                        ...        10
  MaxIter(CI)                       ...        64
  Energy Tolerance CI               ...  2.50e-09
  Residual Tolerance CI             ...  2.50e-09
  Shift(CI)                         ...  1.00e-04

INTEGRAL-TRANSFORMATION-STEP:
  Algorithm                         ... EXACT

ORBITAL-IMPROVEMENT-STEP:
  Algorithm                         ... SuperCI(PT)
  Default Parametrization           ... CAYLEY
  Act-Act rotations                 ... depends on algorithm used

  Note: SuperCI(PT) will ignore FreezeIE, FreezeAct and FreezeGrad. In general Default settings are encouraged.
        In conjunction with ShiftUp, ShiftDn or GradScaling the performance of SuperCI(PT) is less optimal.  

  MaxRot                            ... 2.00e-01 
  Max. no of vectors (DIIS)         ... 15
  DThresh (cut-off) metric          ... 1.00e-06
  Switch step at gradient           ...  3.00e-02 
  Switch step at iteration          ...        50   
  Switch step to                    ... SuperCI(PT)    

SCF-SETTINGS:
  Incremental                       ... on
  RIJCOSX approximation             ... off
  RI-JK approximation               ... off
  AO integral handling              ... DIRECT
  Integral Neglect Thresh           ...  2.50e-11
  Primitive cutoff TCut             ...  2.50e-12
  Energy convergence tolerance      ...  2.50e-08
  Orbital gradient convergence      ...  2.50e-04
  Max. number of iterations         ...        75  


FINAL ORBITALS:
  Active   Orbitals                 ... natural 
  Internal Orbitals                 ... canonical 
  External Orbitals                 ... canonical 

------------------
CAS-SCF ITERATIONS
------------------


MACRO-ITERATION   1: 
   --- Inactive Energy E0 = 0.02652169 Eh
CI-ITERATION   0: 
    -0.999966587   0.000000000000 (    0.00)
   CI-PROBLEM SOLVED
   DENSITIES MADE

                 <<<<<<<<<<<<<<<<<<INITIAL CI STATE CHECK>>>>>>>>>>>>>>>>>>

BLOCK  1 MULT= 1 NROOTS= 1 
ROOT   0:  E=      -0.9999665866 Eh
      0.50002 [     0]: 200000000000
      0.49998 [    12]: 020000000000

                 <<<<<<<<<<<<<<<<<<INITIAL CI STATE CHECK>>>>>>>>>>>>>>>>>>

   E(CAS)=    -0.999966587 Eh DE=     0.000000000
   --- Energy gap subspaces: Ext-Act = -1.823   Act-Int = 0.600
   N(occ)=  1.00004 0.99996 0.00000 0.00000 0.00000 0.00000 0.00000 0.00000 0.00000 0.00000 0.00000 0.00000
   ||g|| =      0.000220436 Max(G)=    -0.000132257 Rot=12,1
                     ---- THE CAS-SCF GRADIENT HAS CONVERGED ----
                            --- FINALIZING ORBITALS ---
                    ---- DOING ONE FINAL ITERATION FOR PRINTING ----
   --- Forming Natural Orbitals
   --- Canonicalize Internal Space
   --- Canonicalize External Space

MACRO-ITERATION   2: 
   --- Inactive Energy E0 = 0.02652169 Eh
   --- All densities will be recomputed
CI-ITERATION   0: 
    -0.999966587   0.000000000000 (    0.00)
   CI-PROBLEM SOLVED
   DENSITIES MADE
   E(CAS)=    -0.999966587 Eh DE=     0.000000000
   --- Energy gap subspaces: Ext-Act = -1.860   Act-Int = 0.600
   N(occ)=  1.00004 0.99996 0.00000 0.00000 0.00000 0.00000 0.00000 0.00000 0.00000 0.00000 0.00000 0.00000
   ||g|| =      0.000220436 Max(G)=     0.000132257 Rot=12,1
--------------
CASSCF RESULTS
--------------

Final CASSCF energy       : -0.999966587 Eh     -27.2105 eV


---------------------------------------------
CAS-SCF STATES FOR BLOCK  1 MULT= 1 NROOTS= 1
---------------------------------------------

ROOT   0:  E=      -0.9999665866 Eh
      0.50002 [     0]: 200000000000
      0.49998 [    12]: 020000000000


--------------
DENSITY MATRIX
--------------

                  0          1          2          3          4          5    
      0       1.000042  -0.000000   0.000000  -0.000000   0.000000  -0.000000
      1      -0.000000   0.999958  -0.000000  -0.000000  -0.000000   0.000000
      2       0.000000  -0.000000   0.000000  -0.000000  -0.000000  -0.000000
      3      -0.000000  -0.000000  -0.000000   0.000000  -0.000000   0.000000
      4       0.000000  -0.000000  -0.000000  -0.000000   0.000000  -0.000000
      5      -0.000000   0.000000  -0.000000   0.000000  -0.000000   0.000000
      6      -0.000000   0.000000   0.000000  -0.000000   0.000000   0.000000
      7      -0.000000  -0.000000  -0.000000  -0.000000  -0.000000   0.000000
      8      -0.000000  -0.000000   0.000000   0.000000  -0.000000  -0.000000
      9      -0.000000   0.000000  -0.000000   0.000000  -0.000000  -0.000000
     10       0.000000   0.000000   0.000000   0.000000  -0.000000  -0.000000
     11       0.000000   0.000000   0.000000  -0.000000  -0.000000  -0.000000
                  6          7          8          9         10         11    
      0      -0.000000  -0.000000  -0.000000  -0.000000   0.000000   0.000000
      1       0.000000  -0.000000  -0.000000   0.000000   0.000000   0.000000
      2       0.000000  -0.000000   0.000000  -0.000000   0.000000   0.000000
      3      -0.000000  -0.000000   0.000000   0.000000   0.000000  -0.000000
      4       0.000000  -0.000000  -0.000000  -0.000000  -0.000000  -0.000000
      5       0.000000   0.000000  -0.000000  -0.000000  -0.000000  -0.000000
      6       0.000000   0.000000   0.000000  -0.000000  -0.000000  -0.000000
      7       0.000000   0.000000  -0.000000  -0.000000   0.000000  -0.000000
      8       0.000000  -0.000000   0.000000  -0.000000  -0.000000   0.000000
      9      -0.000000  -0.000000  -0.000000   0.000000  -0.000000  -0.000000
     10      -0.000000   0.000000  -0.000000  -0.000000   0.000000  -0.000000
     11      -0.000000  -0.000000   0.000000  -0.000000  -0.000000   0.000000
Trace of the electron density:  2.000000

-----------------
ENERGY COMPONENTS
-----------------

One electron energy          :     -1.053009967 Eh         -28.6539 eV
Two electron energy          :      0.026521694 Eh           0.7217 eV
Nuclear repulsion energy     :      0.026521686 Eh           0.7217 eV
                               ----------------
                                   -0.999966587

Kinetic energy               :      0.999999964 Eh          27.2114 eV
Potential energy             :     -1.999966550 Eh         -54.4219 eV
Virial ratio                 :     -1.999966623 
                               ----------------
                                   -0.999966587

Core energy                  :      0.026521686 Eh        0.7217 eV


----------------------------
LOEWDIN REDUCED ACTIVE MOs  
----------------------------

                      0         1         2         3         4         5   
                  -0.18748  -0.18746   0.57535   0.61304   0.61304   1.38023
                   1.00004   0.99996   0.00000   0.00000   0.00000   0.00000
                  --------  --------  --------  --------  --------  --------
 0 H  s              50.0      50.0       0.2       0.0       0.0       4.1
 0 H  pz              0.0       0.0       0.0      24.9      24.1       0.0
 0 H  px              0.0       0.0      49.7       0.0       0.0      40.7
 0 H  py              0.0       0.0       0.0      24.1      24.9       0.0
 1 H  s              50.0      50.0       0.2       0.0       0.0       4.1
 1 H  pz              0.0       0.0       0.0      24.9      24.1       0.0
 1 H  px              0.0       0.0      49.7       0.0       0.0      40.7
 1 H  py              0.0       0.0       0.0      24.1      24.9       0.0

                      6         7         8         9        10        11   
                   1.17972   1.17972   0.77775   1.23529   2.29211   2.38087
                   0.00000   0.00000   0.00000   0.00000   0.00000   0.00000
                  --------  --------  --------  --------  --------  --------
 0 H  s               0.0       0.0      49.0      43.0       0.0       1.5
 0 H  pz             24.7      22.0       0.0       0.0       0.0       0.0
 0 H  px              0.0       0.0       0.1       5.8       0.0      16.4
 0 H  py             22.0      24.7       0.0       0.0       0.0       0.0
 0 H  dz2             0.0       0.0       0.2       0.3      36.2       7.5
 0 H  dx2y2           0.0       0.0       0.6       0.9      12.1      22.5
 1 H  s               0.0       0.0      49.0      43.0       0.0       1.5
 1 H  pz             24.7      22.0       0.0       0.0       0.0       0.0
 1 H  px              0.0       0.0       0.1       5.8       0.0      16.4
 1 H  py             22.0      24.7       0.0       0.0       0.0       0.0
 1 H  dz2             0.0       0.0       0.2       0.3      36.2       7.5
 1 H  dx2y2           0.0       0.0       0.6       0.9      12.1      22.5


-------------------------------------------------------------
 Forming the transition density       ... done in 0.002463 sec
-------------------------------------------------------------



==========================================
CASSCF UV, CD spectra and dipole moments
==========================================
-------------------
ABSORPTION SPECTRUM
-------------------

Center of mass           = ( 18.8525,  0.0000,  0.0000)
Nuclear contribution to the dipole moment =     0.000000,    0.000000,    0.000000 au

Calculating the dipole integrals                  ... done
Transforming integrals                            ... done
Calculating the Linear Momentum integrals         ... done
Transforming integrals                            ... done
Calculating the Angular Momentum integrals        ... done
Transforming integrals                            ... done

Ground state mult:    1
Ground state block:   0
Ground state root:    0


------------------------------------------------------------------------------
                                 DIPOLE MOMENTS
------------------------------------------------------------------------------
  Root  Block           TX        TY        TZ           |T|
                      (Debye)   (Debye)   (Debye)      (Debye)
------------------------------------------------------------------------------
    0    0           -0.00000   0.00000  -0.00000      0.00000

--------------
CASSCF TIMINGS
--------------

Total time                       ...        0.4 sec
Sum of individual times          ...        0.3 sec ( 70.7%)

Calculation of AO operators
   F(Core) operator              ...        0.0 sec (  1.0%)
   G(Act) operator               ...        0.0 sec (  6.2%)
   J(AO) operators               ...        0.0 sec (  0.0%)
Calculation of MO transformed quantities
   J(MO) operators               ...        0.2 sec ( 44.6%)
   (pq|rs) integrals             ...        0.0 sec (  0.0%)
   AO->MO one electron integrals ...        0.0 sec (  0.1%)
Configuration interaction steps
   CI-setup phase                ...        0.0 sec (  0.3%)
   CI-solution phase             ...        0.1 sec ( 12.9%)
   Generation of densities       ...        0.0 sec (  1.7%)
Orbital improvement steps
   Orbital gradient              ...        0.0 sec (  2.2%)
Properties                       ...        0.0 sec (  1.8%)
   SOC integral calculation      ...        0.0 sec (  0.0%)
   SSC RMEs (incl. integrals)    ...        0.0 sec (  0.0%)
   SOC RMEs                      ...        0.0 sec (  0.0%)

-------------------------   --------------------
FINAL SINGLE POINT ENERGY        -0.999966586585
-------------------------   --------------------

Storing actual gbw-file in H2_0_1_CASSCF-2-12_def2-qzvpp.sp.020.gbw ... done

                            ***************************************
                            *     ORCA property calculations      *
                            ***************************************

                                    ---------------------
                                    Active property flags
                                    ---------------------
   (+) Dipole Moment


------------------------------------------------------------------------------
                       ORCA ELECTRIC PROPERTIES CALCULATION
------------------------------------------------------------------------------

Dipole Moment Calculation                       ... on
Quadrupole Moment Calculation                   ... off
Polarizability Calculation                      ... off
GBWName                                         ... H2_0_1_CASSCF-2-12_def2-qzvpp.sp.gbw
Electron density file                           ... H2_0_1_CASSCF-2-12_def2-qzvpp.sp.scfp
The origin for moment calculation is the CENTER OF MASS  = (18.852497,  0.000000  0.000000)

-------------
DIPOLE MOMENT
-------------
                                X             Y             Z
Electronic contribution:      0.00000       0.00000      -0.00000
Nuclear contribution   :     -0.00000       0.00000       0.00000
                        -----------------------------------------
Total Dipole Moment    :     -0.00000       0.00000      -0.00000
                        -----------------------------------------
Magnitude (a.u.)       :      0.00000
Magnitude (Debye)      :      0.00000



--------------------
Rotational spectrum 
--------------------
 
Rotational constants in cm-1:     0.000000     0.084017     0.084017 
Rotational constants in MHz :     0.000000  2518.761623  2518.761623 

 Dipole components along the rotational axes: 
x,y,z [a.u.] :    -0.000000     0.000000    -0.000000 
x,y,z [Debye]:    -0.000000     0.000000    -0.000000 

 
                              **** TRAJECTORY DONE ***

                         SUMMARY OF THE CALCULATED SURFACE

------------------
TRAJECTORY RESULTS
------------------

Column   1: RHH

The Calculated Surface using the 'Actual Energy'
   0.50118723  -1.10247991
   0.60842987  -1.15613824
   0.73861998  -1.17226622
   0.89666781  -1.16088902
   1.08853427  -1.13134707
   1.32145577  -1.09274231
   1.60421716  -1.05422355
   1.94748304  -1.02440623
   2.36419999  -1.00786953
   2.87008485  -1.00173820
   3.48421754  -1.00023944
   4.22976062  -0.99999792
   5.13483291  -0.99997062
   6.23357002  -0.99996747
   7.56741181  -0.99996684
   9.18666532  -0.99996666
  11.15240214  -0.99996661
  13.53876180  -0.99996659
  16.43574799  -0.99996659
  19.95262315  -0.99996659

                        *******************************
                        *   FIT OF THE ACT-ENERGY PES *
                        *******************************
-------------------------------
POTENTIAL ENERGY SURFACE =   0
-------------------------------

Minimum found after 15 iterations
Equilibrium distance and its energy from the interpolated PES:
  Re      =   0.72683 Angstroem  (  1.37351 Bohr)
  E(Re)   =    -1.172343 Eh 
  dE/dR   = 3.133e-10 (-1.145e-01 CHEB)
  d2E/dR2 =    0.338857 (   0.794686 CHEB) (  -0.012937 NUM)
  d3E/dR3 =   -4.136414 (  -2.988074 CHEB)

Spectroscopic constants:
  we =    4231.8 cm**-1 (based on SPLINE)
  we =    6480.6 cm**-1 (based on CHEB)
  we =      -nan cm**-1 (based on NUM)

Performing Morse fit ...
Morse-Fit Results:
 Te(adiabatic)   =    -358.0 cm**-1         = -0.044 eV
 d2E/dR**2 (Morse)=      0.408347501 
 d3E/dR**3 (Morse)=     -1.324026805 
 d4E/dR**4 (Morse)=      3.339021258 
 E0               =     -1.173973835 Eh  RMS=3.36e-06
 Re               =   0.74396 Angstroem      =  1.40589 Bohr RMS=9.21e-06)
 De(Morse)        =   4.75619 eV             =  38361.3 cm**-1 RMS=3.30e-06
 D0(Morse)        =   4.46821 eV
 beta             =   1.08080 au          RMS=2.85e-05
 we               =   4645.5 cm**-1
 wexe             =    140.6 cm**-1
 Displacement   =    0.0171 Angstroem      =  0.03237 Bohr

The Calculated Surface using the SCF energy
   0.50118723  -1.10247991
   0.60842987  -1.15613824
   0.73861998  -1.17226622
   0.89666781  -1.16088902
   1.08853427  -1.13134707
   1.32145577  -1.09274231
   1.60421716  -1.05422355
   1.94748304  -1.02440623
   2.36419999  -1.00786953
   2.87008485  -1.00173820
   3.48421754  -1.00023944
   4.22976062  -0.99999792
   5.13483291  -0.99997062
   6.23357002  -0.99996747
   7.56741181  -0.99996684
   9.18666532  -0.99996666
  11.15240214  -0.99996661
  13.53876180  -0.99996659
  16.43574799  -0.99996659
  19.95262315  -0.99996659

                        *******************************
                        *       FIT OF THE SCF PES    *
                        *******************************
-------------------------------
POTENTIAL ENERGY SURFACE =   0
-------------------------------

Minimum found after 15 iterations
Equilibrium distance and its energy from the interpolated PES:
  Re      =   0.72683 Angstroem  (  1.37351 Bohr)
  E(Re)   =    -1.172343 Eh 
  dE/dR   = 3.133e-10 (-1.145e-01 CHEB)
  d2E/dR2 =    0.338857 (   0.794686 CHEB) (  -0.012937 NUM)
  d3E/dR3 =   -4.136414 (  -2.988074 CHEB)

Spectroscopic constants:
  we =    4231.8 cm**-1 (based on SPLINE)
  we =    6480.6 cm**-1 (based on CHEB)
  we =      -nan cm**-1 (based on NUM)

Performing Morse fit ...
Morse-Fit Results:
 Te(adiabatic)   =    -358.0 cm**-1         = -0.044 eV
 d2E/dR**2 (Morse)=      0.408347501 
 d3E/dR**3 (Morse)=     -1.324026805 
 d4E/dR**4 (Morse)=      3.339021258 
 E0               =     -1.173973835 Eh  RMS=3.36e-06
 Re               =   0.74396 Angstroem      =  1.40589 Bohr RMS=9.21e-06)
 De(Morse)        =   4.75619 eV             =  38361.3 cm**-1 RMS=3.30e-06
 D0(Morse)        =   4.46821 eV
 beta             =   1.08080 au          RMS=2.85e-05
 we               =   4645.5 cm**-1
 wexe             =    140.6 cm**-1
 Displacement   =    0.0171 Angstroem      =  0.03237 Bohr


Timings for individual modules:

Sum of individual times         ...      101.177 sec (=   1.686 min)
GTO integral calculation        ...        5.040 sec (=   0.084 min)   5.0 %
SCF iterations                  ...        0.995 sec (=   0.017 min)   1.0 %
CASSCF iterations               ...       95.142 sec (=   1.586 min)  94.0 %
                             ****ORCA TERMINATED NORMALLY****
TOTAL RUN TIME: 0 days 0 hours 1 minutes 43 seconds 412 msec
