
                                 *****************
                                 * O   R   C   A *
                                 *****************

           --- An Ab Initio, DFT and Semiempirical electronic structure package ---

                  #######################################################
                  #                        -***-                        #
                  #          Department of theory and spectroscopy      #
                  #               Directorship: Frank Neese             #
                  #        Max Planck Institute fuer Kohlenforschung    #
                  #                Kaiser Wilhelm Platz 1               #
                  #                 D-45470 Muelheim/Ruhr               #
                  #                      Germany                        #
                  #                                                     #
                  #                  All rights reserved                #
                  #                        -***-                        #
                  #######################################################


                         Program Version 4.2.0 -  RELEASE  -


 With contributions from (in alphabetic order):
   Daniel Aravena         : Magnetic Suceptibility
   Michael Atanasov       : Ab Initio Ligand Field Theory (pilot matlab implementation)
   Alexander A. Auer      : GIAO ZORA, VPT2
   Ute Becker             : Parallelization
   Giovanni Bistoni       : ED, misc. LED, open-shell LED, HFLED
   Martin Brehm           : Molecular dynamics
   Dmytro Bykov           : SCF Hessian
   Vijay G. Chilkuri      : MRCI spin determinant printing, contributions to CSF-ICE
   Dipayan Datta          : RHF DLPNO-CCSD density
   Achintya Kumar Dutta   : EOM-CC, STEOM-CC
   Dmitry Ganyushin       : Spin-Orbit,Spin-Spin,Magnetic field MRCI
   Miquel Garcia          : C-PCM Hessian, Gaussian charge scheme
   Yang Guo               : DLPNO-NEVPT2, CIM, IAO-localization
   Andreas Hansen         : Spin unrestricted coupled pair/coupled cluster methods
   Benjamin Helmich-Paris : CASSCF linear response (MC-RPA)
   Lee Huntington         : MR-EOM, pCC
   Robert Izsak           : Overlap fitted RIJCOSX, COSX-SCS-MP3, EOM
   Christian Kollmar      : KDIIS, OOCD, Brueckner-CCSD(T), CCSD density
   Simone Kossmann        : Meta GGA functionals, TD-DFT gradient, OOMP2, MP2 Hessian
   Martin Krupicka        : AUTO-CI
   Lucas Lang             : DCDCAS
   Dagmar Lenk            : GEPOL surface, SMD
   Dimitrios Liakos       : Extrapolation schemes; Compound Job, initial MDCI parallelization
   Dimitrios Manganas     : Further ROCIS development; embedding schemes
   Dimitrios Pantazis     : SARC Basis sets
   Taras Petrenko         : DFT Hessian,TD-DFT gradient, ASA, ECA, R-Raman, ABS, FL, XAS/XES, NRVS
   Peter Pinski           : DLPNO-MP2, DLPNO-MP2 Gradient
   Christoph Reimann      : Effective Core Potentials
   Marius Retegan         : Local ZFS, SOC
   Christoph Riplinger    : Optimizer, TS searches, QM/MM, DLPNO-CCSD(T), (RO)-DLPNO pert. Triples
   Tobias Risthaus        : Range-separated hybrids, TD-DFT gradient, RPA, STAB
   Michael Roemelt        : Original ROCIS implementation
   Masaaki Saitow         : Open-shell DLPNO-CCSD energy and density
   Barbara Sandhoefer     : DKH picture change effects
   Avijit Sen             : IP-ROCIS
   Kantharuban Sivalingam : CASSCF convergence, NEVPT2, FIC-MRCI
   Bernardo de Souza      : ESD, SOC TD-DFT
   Georgi Stoychev        : AutoAux, RI-MP2 NMR
   Willem Van den Heuvel  : Paramagnetic NMR
   Boris Wezisla          : Elementary symmetry handling
   Frank Wennmohs         : Technical directorship


 We gratefully acknowledge several colleagues who have allowed us to
 interface, adapt or use parts of their codes:
   Stefan Grimme, W. Hujo, H. Kruse,             : VdW corrections, initial TS optimization,
                  C. Bannwarth                     DFT functionals, gCP, sTDA/sTD-DF
   Ed Valeev, F. Pavosevic, A. Kumar             : LibInt (2-el integral package), F12 methods
   Garnet Chan, S. Sharma, J. Yang, R. Olivares  : DMRG
   Ulf Ekstrom                                   : XCFun DFT Library
   Mihaly Kallay                                 : mrcc  (arbitrary order and MRCC methods)
   Andreas Klamt, Michael Diedenhofen            : otool_cosmo (COSMO solvation model)
   Jiri Pittner, Ondrej Demel                    : Mk-CCSD
   Frank Weinhold                                : gennbo (NPA and NBO analysis)
   Christopher J. Cramer and Donald G. Truhlar   : smd solvation model
   Lars Goerigk                                  : TD-DFT with DH, B97 family of functionals
   V. Asgeirsson, H. Jonsson                     : NEB implementation
   FAccTs GmbH                                   : IRC, NEB, NEB-TS, Multilevel, MM, QM/MM, CI optimization
   S Lehtola, MJT Oliveira, MAL Marques          : LibXC Library


 Your calculation uses the libint2 library for the computation of 2-el integrals
 For citations please refer to: http://libint.valeyev.net

 Your ORCA version has been built with support for libXC version: 4.2.3
 For citations please refer to: https://tddft.org/programs/libxc/

 This ORCA versions uses:
   CBLAS   interface :  Fast vector & matrix operations
   LAPACKE interface :  Fast linear algebra routines
   SCALAPACK package :  Parallel linear algebra routines


----- Orbital basis set information -----
Your calculation utilizes the basis: def2-QZVPP
   F. Weigend and R. Ahlrichs, Phys. Chem. Chem. Phys. 7, 3297 (2005).

================================================================================
                                        WARNINGS
                       Please study these warnings very carefully!
================================================================================


INFO   : the flag for use of LIBINT has been found!

================================================================================
                                       INPUT FILE
================================================================================
NAME = H2_0_1_CASSCF-2-8_def2-qzvpp.sp.inp
|  1> !rhf def2-qzvpp tightscf 
|  2> !normalprint
|  3> 
|  4> %paras
|  5> #  rHH [19.952623149688797 16.43574799372698 13.538761800225439 11.152402139117903 9.1866653175426 7.567411809920191 6.233570019315557 5.134832907437553 4.229760619613384 3.4842175435383975 2.870084854071569 2.3641999865500756 1.9474830399087562 1.6042171611153242 1.32145576997553 1.088534267260644 0.8966678097917788 0.7386199822079362 0.6084298690766428 0.5011872336272722]
|  6>   rHH [0.5011872336272722 0.6084298690766428 0.7386199822079362 0.8966678097917788 1.088534267260644 1.32145576997553 1.6042171611153242 1.9474830399087562 2.3641999865500756 2.870084854071569 3.4842175435383975 4.229760619613384 5.134832907437553 6.233570019315557 7.567411809920191 9.1866653175426 11.152402139117903 13.538761800225439 16.43574799372698 19.952623149688797]
|  7> end
|  8> 
|  9> %scf
| 10>   maxiter 500
| 11> end
| 12> 
| 13> %casscf
| 14>   nel 2
| 15>   norb 8
| 16> end
| 17> 
| 18> *int 0 1
| 19> H 0 0 0 0 0 0
| 20> H 1 0 0 {rHH} 0 0
| 21> *
| 22> 
| 23>                          ****END OF INPUT****
================================================================================

                       ******************************
                       * Parameter Scan Calculation *
                       ******************************

Trajectory settings:
    -> SCF surface will be mapped

There are 1 parameter(s) to be scanned
           RHH: user defined at 20 points
There will be   20 energy evaluations


         *************************************************************
                                TRAJECTORY STEP   1
                RHH  :   0.50118723
         *************************************************************
---------------------------------
CARTESIAN COORDINATES (ANGSTROEM)
---------------------------------
  H      0.000000    0.000000    0.000000
  H      0.501187    0.000000    0.000000

----------------------------
CARTESIAN COORDINATES (A.U.)
----------------------------
  NO LB      ZA    FRAG     MASS         X           Y           Z
   0 H     1.0000    0     1.008    0.000000    0.000000    0.000000
   1 H     1.0000    0     1.008    0.947107    0.000000    0.000000

--------------------------------
INTERNAL COORDINATES (ANGSTROEM)
--------------------------------
 H      0   0   0     0.000000000000     0.00000000     0.00000000
 H      1   0   0     0.501187233627     0.00000000     0.00000000

---------------------------
INTERNAL COORDINATES (A.U.)
---------------------------
 H      0   0   0     0.000000000000     0.00000000     0.00000000
 H      1   0   0     0.947106613373     0.00000000     0.00000000

---------------------
BASIS SET INFORMATION
---------------------
There are 1 groups of distinct atoms

 Group   1 Type H   : 7s3p2d1f contracted to 4s3p2d1f pattern {4111/111/11/1}

Atom   0H    basis set group =>   1
Atom   1H    basis set group =>   1
------------------------------------------------------------------------------
                           ORCA GTO INTEGRAL CALCULATION
------------------------------------------------------------------------------

                         BASIS SET STATISTICS AND STARTUP INFO

 # of primitive gaussian shells          ...   26
 # of primitive gaussian functions       ...   66
 # of contracted shells                  ...   20
 # of contracted basis functions         ...   60
 Highest angular momentum                ...    3
 Maximum contraction depth               ...    4
 Integral package used                   ... LIBINT
 Integral threshhold            Thresh   ...  2.500e-11
 Primitive cut-off              TCut     ...  2.500e-12


------------------------------ INTEGRAL EVALUATION ----------------------------


 * One electron integrals 
 Pre-screening matrix                    ... done
 Shell pair data                         ... done (   0.000 sec)

-------------------------------------------------------------------------------
                                 ORCA SCF
-------------------------------------------------------------------------------

------------
SCF SETTINGS
------------
Hamiltonian:
 Ab initio Hamiltonian  Method          .... Hartree-Fock(GTOs)


General Settings:
 Integral files         IntName         .... H2_0_1_CASSCF-2-8_def2-qzvpp.sp
 Hartree-Fock type      HFTyp           .... CASSCF
 Total Charge           Charge          ....    0
 Multiplicity           Mult            ....    1
 Number of Electrons    NEL             ....    2
 Basis Dimension        Dim             ....   60
 Nuclear Repulsion      ENuc            ....      1.0558473417 Eh


Diagonalization of the overlap matrix:
Smallest eigenvalue                        ... 5.708e-05
Time for diagonalization                   ...    0.001 sec
Threshold for overlap eigenvalues          ... 1.000e-08
Number of eigenvalues below threshold      ... 0
Time for construction of square roots      ...    0.003 sec
Total time needed                          ...    0.004 sec

-------------------
DFT GRID GENERATION
-------------------

General Integration Accuracy     IntAcc      ...  4.340
Radial Grid Type                 RadialGrid  ... Gauss-Chebyshev
Angular Grid (max. acc.)         AngularGrid ... Lebedev-110
Angular grid pruning method      GridPruning ... 3 (G Style)
Weight generation scheme         WeightScheme... Becke
Basis function cutoff            BFCut       ...    1.0000e-11
Integration weight cutoff        WCut        ...    1.0000e-14
Grids for H and He will be reduced by one unit

# of grid points (after initial pruning)     ...   1588 (   0.0 sec)
# of grid points (after weights+screening)   ...   1560 (   0.0 sec)
nearest neighbour list constructed           ...    0.0 sec
Grid point re-assignment to atoms done       ...    0.0 sec
Grid point division into batches done        ...    0.0 sec
Reduced shell lists constructed in    0.0 sec

Total number of grid points                  ...     1560
Total number of batches                      ...       26
Average number of points per batch           ...       60
Average number of grid points per atom       ...      780
Average number of shells per batch           ...    19.15 (95.74%)
Average number of basis functions per batch  ...    57.44 (95.74%)
Average number of large shells per batch     ...    18.78 (98.07%)
Average number of large basis fcns per batch ...    56.19 (97.81%)
Maximum spatial batch extension              ...  15.26, 21.59, 21.59 au
Average spatial batch extension              ...   4.46,  7.66,  7.77 au

Time for grid setup =    0.007 sec

------------------------------
INITIAL GUESS: MODEL POTENTIAL
------------------------------
Loading Hartree-Fock densities                     ... done
Calculating cut-offs                               ... done
Setting up the integral package                    ... done
Initializing the effective Hamiltonian             ... done
Starting the Coulomb interaction                   ... done (   0.0 sec)
Reading the grid                                   ... done
Mapping shells                                     ... done
Starting the XC term evaluation                    ... done (   0.0 sec)
Transforming the Hamiltonian                       ... done (   0.0 sec)
Diagonalizing the Hamiltonian                      ... done (   0.0 sec)
Back transforming the eigenvectors                 ... done (   0.0 sec)
Now organizing SCF variables                       ... done
                      ------------------
                      INITIAL GUESS DONE (   0.1 sec)
                      ------------------


 ... the calculation is a CASSCF calculation -I'm leaving here GOOD LUCK!!!

-------------------------------------------------------------------------------
                              ORCA-CASSCF
-------------------------------------------------------------------------------

Setting up the integral package       ... done
Building the CAS space                ... done (36 configurations for Mult=1)
----------------
GENERAL CI SETUP
----------------

Checking configurations                         ... done
Determining NSOMO,NDOMO and NVMO                ... done
Building up the tree                            ... done
Building N-1 electron tree                      ... done
Building RI configuration space                 ... done
Analyzing the RI configuration space            ... done
Determining NDOMO,NSOMO,NVMO for RI space       ... done
Determination of address arrays                 ... done
Looking for max. no of open shells              ... done
Setting up coupling coefficient container       ... Memory for address arrays  		      ... done
Make address arrays			      ... done
Memory for buffers 			      ... done
Setting up spin-function prototypes	      ... (MAXOPEN=2) 0 2 4 done
Trivial cases - DOMO's			      ... done (  0.0 MB)
Number of open shells			    ...  0
domo->virtual excitations			... done (  0.0 MB)
domo->somo excitations				... done (  0.0 MB)
somo->virtual excitations			... done (  0.0 MB)
somo->somo excitations				... done (  0.0 MB)
Number of open shells			    ...  2
domo->virtual excitations			... done (  0.0 MB)
domo->somo excitations				... done (  0.0 MB)
somo->virtual excitations			... done (  0.0 MB)
somo->somo excitations				... done (  0.0 MB)
Coupling container construction done
done
Now recording sub-block dimensions              ... done
Memory used for TGeneralCI arrays =     0.0 MB
  Original space  =     0.0
  RI       space  =     0.0
  Address arrays  =     0.0
  Coupling coeffs =     0.0
Multiplicity                          ...       1
# of electrons                        ...       2
# of orbitals                         ...       8
# of roots requested                  ...       1
Configuration space:
# of configurations                   ...      36
# of CSF's                            ...      36
# of rejected configurations          ...       0
Min. # of SOMOs                       ...       0
Max. # of SOMOs                       ...       2
Max. # of DOMOs                       ...       1
Max. # of VMOs                        ...       7
RI Configuration space:
# of configurations                   ...      36
# of CSF's                            ...      36
# of rejected configurations          ...       0
Min. # of SOMOs                       ...       0
Max. # of SOMOs                       ...       2
Max. # of DOMOs                       ...       1
Max. # of VMOs                        ...       7
(N-1) Electron Configuration space:
# of configurations                   ...       8
CSF dimensions:
      0 SOMOs give     1 CSFs
      2 SOMOs give     1 CSFs


SYSTEM-SPECIFIC SETTINGS:
Number of active electrons          ...    2
Number of active orbitals           ...    8
Total number of electrons           ...    2
Total number of orbitals            ...   60

Determined orbital ranges:
   Internal       0 -   -1 (   0 orbitals)
   Active         0 -    7 (   8 orbitals)
   External       8 -   59 (  52 orbitals)
Number of rotation parameters      ...    416

CI-STEP:
CI strategy                         ... General CI
Number of multiplicity blocks       ...    1
BLOCK  1 WEIGHT=   1.0000
  Multiplicity                      ...    1
  #(Configurations)                 ...   36
  #(CSFs)                           ...   36
  #(Roots)                          ...    1
    ROOT=0 WEIGHT=    1.000000

  PrintLevel                        ...    1
  N(GuessMat)                       ...       512
  MaxDim(CI)                        ...        10
  MaxIter(CI)                       ...        64
  Energy Tolerance CI               ...  2.50e-09
  Residual Tolerance CI             ...  2.50e-09
  Shift(CI)                         ...  1.00e-04

INTEGRAL-TRANSFORMATION-STEP:
  Algorithm                         ... EXACT

ORBITAL-IMPROVEMENT-STEP:
  Algorithm                         ... SuperCI(PT)
  Default Parametrization           ... CAYLEY
  Act-Act rotations                 ... depends on algorithm used

  Note: SuperCI(PT) will ignore FreezeIE, FreezeAct and FreezeGrad. In general Default settings are encouraged.
        In conjunction with ShiftUp, ShiftDn or GradScaling the performance of SuperCI(PT) is less optimal.  

  MaxRot                            ... 2.00e-01 
  Max. no of vectors (DIIS)         ... 15
  DThresh (cut-off) metric          ... 1.00e-06
  Switch step at gradient           ...  3.00e-02 
  Switch step at iteration          ...        50   
  Switch step to                    ... SuperCI(PT)    

SCF-SETTINGS:
  Incremental                       ... on
  RIJCOSX approximation             ... off
  RI-JK approximation               ... off
  AO integral handling              ... DIRECT
  Integral Neglect Thresh           ...  2.50e-11
  Primitive cutoff TCut             ...  2.50e-12
  Energy convergence tolerance      ...  2.50e-08
  Orbital gradient convergence      ...  2.50e-04
  Max. number of iterations         ...        75  


FINAL ORBITALS:
  Active   Orbitals                 ... natural 
  Internal Orbitals                 ... canonical 
  External Orbitals                 ... canonical 

------------------
CAS-SCF ITERATIONS
------------------


MACRO-ITERATION   1: 
   --- Inactive Energy E0 = 1.05584734 Eh
CI-ITERATION   0: 
    -1.073189487   0.000000000000 (    0.00)
   CI-PROBLEM SOLVED
   DENSITIES MADE

                 <<<<<<<<<<<<<<<<<<INITIAL CI STATE CHECK>>>>>>>>>>>>>>>>>>

BLOCK  1 MULT= 1 NROOTS= 1 
ROOT   0:  E=      -1.0731894870 Eh
      0.98739 [     0]: 20000000
      0.00586 [     2]: 10100000

                 <<<<<<<<<<<<<<<<<<INITIAL CI STATE CHECK>>>>>>>>>>>>>>>>>>

   E(CAS)=    -1.073189487 Eh DE=     0.000000000
   --- Energy gap subspaces: Ext-Act = -0.020   Act-Int = 0.600
   N(occ)=  1.98140 0.00236 0.00765 0.00230 0.00232 0.00278 0.00118 0.00002
   ||g|| =      0.262476602 Max(G)=     0.173452959 Rot=24,0
   --- Orbital Update [SuperCI(PT)]
   --- Canonicalize Internal Space
   --- Canonicalize External Space
   --- SX_PT (Skipped TA=1 IT=0): ||X|| =      1.906801085 Max(X)(16,7) =     -0.926839569 
   --- SFit(Active Orbitals)

MACRO-ITERATION   2: 
   --- Inactive Energy E0 = 1.05584734 Eh
CI-ITERATION   0: 
    -1.089106851   0.000000000000 (    0.00)
   CI-PROBLEM SOLVED
   DENSITIES MADE
   E(CAS)=    -1.089106851 Eh DE=    -0.015917364
   --- Energy gap subspaces: Ext-Act = -0.633   Act-Int = 0.600
   N(occ)=  1.96729 0.00506 0.01035 0.00402 0.00406 0.00595 0.00319 0.00008
   ||g|| =      0.162373479 Max(G)=    -0.107601139 Rot=9,0
   --- Orbital Update [SuperCI(PT)]
   --- Canonicalize Internal Space
   --- Canonicalize External Space
   --- SX_PT (Skipped TA=1 IT=0): ||X|| =      1.012023308 Max(X)(16,7) =      0.518196015 
   --- SFit(Active Orbitals)

MACRO-ITERATION   3: 
   --- Inactive Energy E0 = 1.05584734 Eh
CI-ITERATION   0: 
    -1.099938029   0.000000000000 (    0.00)
   CI-PROBLEM SOLVED
   DENSITIES MADE
   E(CAS)=    -1.099938029 Eh DE=    -0.010831178
   --- Energy gap subspaces: Ext-Act = -2.163   Act-Int = 0.600
   N(occ)=  1.96919 0.00399 0.00903 0.00420 0.00425 0.00515 0.00406 0.00013
   ||g|| =      0.080286726 Max(G)=    -0.044285641 Rot=18,0
   --- Orbital Update [SuperCI(PT)]
   --- Canonicalize Internal Space
   --- Canonicalize External Space
   --- SX_PT (Skipped TA=1 IT=0): ||X|| =      0.304389976 Max(X)(12,7) =     -0.205524080 
   --- SFit(Active Orbitals)

MACRO-ITERATION   4: 
   --- Inactive Energy E0 = 1.05584734 Eh
CI-ITERATION   0: 
    -1.100852337   0.000000000000 (    0.00)
   CI-PROBLEM SOLVED
   DENSITIES MADE
   E(CAS)=    -1.100852337 Eh DE=    -0.000914308
   --- Energy gap subspaces: Ext-Act = -2.334   Act-Int = 0.600
   N(occ)=  1.96909 0.00419 0.00896 0.00409 0.00415 0.00531 0.00408 0.00013
   ||g|| =      0.008988548 Max(G)=    -0.006383331 Rot=9,0
   --- Orbital Update [SuperCI(PT)]
   --- Canonicalize Internal Space
   --- Canonicalize External Space
   --- SX_PT (Skipped TA=1 IT=0): ||X|| =      0.063483753 Max(X)(12,7) =     -0.037295675 
   --- SFit(Active Orbitals)

MACRO-ITERATION   5: 
   --- Inactive Energy E0 = 1.05584734 Eh
CI-ITERATION   0: 
    -1.100886047   0.000000000000 (    0.00)
   CI-PROBLEM SOLVED
   DENSITIES MADE
   E(CAS)=    -1.100886047 Eh DE=    -0.000033710
   --- Energy gap subspaces: Ext-Act = -2.459   Act-Int = 0.600
   N(occ)=  1.96988 0.00416 0.00866 0.00395 0.00400 0.00530 0.00394 0.00012
   ||g|| =      0.007677522 Max(G)=     0.005611205 Rot=18,0
   --- Orbital Update [SuperCI(PT)]
   --- Canonicalize Internal Space
   --- Canonicalize External Space
   --- SX_PT (Skipped TA=1 IT=0): ||X|| =      0.042129646 Max(X)(12,7) =      0.022468466 
   --- SFit(Active Orbitals)

MACRO-ITERATION   6: 
   --- Inactive Energy E0 = 1.05584734 Eh
CI-ITERATION   0: 
    -1.100891919   0.000000000000 (    0.00)
   CI-PROBLEM SOLVED
   DENSITIES MADE
   E(CAS)=    -1.100891919 Eh DE=    -0.000005872
   --- Energy gap subspaces: Ext-Act = -2.438   Act-Int = 0.600
   N(occ)=  1.96963 0.00418 0.00875 0.00399 0.00404 0.00532 0.00396 0.00012
   ||g|| =      0.004945515 Max(G)=    -0.003109949 Rot=18,0
   --- Orbital Update [SuperCI(PT)]
   --- Canonicalize Internal Space
   --- Canonicalize External Space
   --- SX_PT (Skipped TA=1 IT=0): ||X|| =      0.032929469 Max(X)(12,7) =      0.022956821 
   --- SFit(Active Orbitals)

MACRO-ITERATION   7: 
   --- Inactive Energy E0 = 1.05584734 Eh
CI-ITERATION   0: 
    -1.100898029   0.000000000000 (    0.00)
   CI-PROBLEM SOLVED
   DENSITIES MADE
   E(CAS)=    -1.100898029 Eh DE=    -0.000006110
   --- Energy gap subspaces: Ext-Act = -2.468   Act-Int = 0.600
   N(occ)=  1.96978 0.00419 0.00869 0.00396 0.00401 0.00532 0.00394 0.00012
   ||g|| =      0.000627967 Max(G)=    -0.000385070 Rot=18,0
   --- Orbital Update [SuperCI(PT)]
   --- Canonicalize Internal Space
   --- Canonicalize External Space
   --- SX_PT (Skipped TA=1 IT=0): ||X|| =      0.003913076 Max(X)(12,7) =      0.002076464 
   --- SFit(Active Orbitals)

MACRO-ITERATION   8: 
   --- Inactive Energy E0 = 1.05584734 Eh
CI-ITERATION   0: 
    -1.100898107   0.000000000000 (    0.00)
   CI-PROBLEM SOLVED
   DENSITIES MADE
   E(CAS)=    -1.100898107 Eh DE=    -0.000000078
   --- Energy gap subspaces: Ext-Act = -2.466   Act-Int = 0.600
   N(occ)=  1.96977 0.00419 0.00869 0.00396 0.00401 0.00532 0.00394 0.00012
   ||g|| =      0.000241730 Max(G)=    -0.000186799 Rot=18,0
                     ---- THE CAS-SCF GRADIENT HAS CONVERGED ----
                            --- FINALIZING ORBITALS ---
                    ---- DOING ONE FINAL ITERATION FOR PRINTING ----
   --- Forming Natural Orbitals
   --- Canonicalize Internal Space
   --- Canonicalize External Space

MACRO-ITERATION   9: 
   --- Inactive Energy E0 = 1.05584734 Eh
   --- All densities will be recomputed
CI-ITERATION   0: 
    -1.100898107   0.000000000000 (    0.00)
   CI-PROBLEM SOLVED
   DENSITIES MADE
   E(CAS)=    -1.100898107 Eh DE=     0.000000000
   --- Energy gap subspaces: Ext-Act = -3.127   Act-Int = 0.600
   N(occ)=  1.97537 0.00951 0.00690 0.00401 0.00396 0.00013 0.00012 0.00000
   ||g|| =      0.000241730 Max(G)=     0.000119771 Rot=42,0
--------------
CASSCF RESULTS
--------------

Final CASSCF energy       : -1.100898107 Eh     -29.9570 eV

----------------
ORBITAL ENERGIES
----------------

  NO   OCC          E(Eh)            E(eV) 
   0   1.9754      -0.674377       -18.3507 
   1   0.0095       1.022521        27.8242 
   2   0.0069       1.111947        30.2576 
   3   0.0040       1.278250        34.7829 
   4   0.0040       1.278741        34.7963 
   5   0.0001       3.625697        98.6602 
   6   0.0001       3.269519        88.9681 
   7   0.0000       0.199975         5.4416 
   8   0.0000       0.498436        13.5631 
   9   0.0000       0.779229        21.2039 
  10   0.0000       0.799831        21.7645 
  11   0.0000       1.124795        30.6072 
  12   0.0000       1.165921        31.7263 
  13   0.0000       1.574297        42.8388 
  14   0.0000       1.574959        42.8568 
  15   0.0000       1.729197        47.0538 
  16   0.0000       2.000345        54.4322 
  17   0.0000       2.000395        54.4335 
  18   0.0000       2.221368        60.4465 
  19   0.0000       2.558434        69.6185 
  20   0.0000       2.558437        69.6186 
  21   0.0000       2.610450        71.0340 
  22   0.0000       2.610981        71.0484 
  23   0.0000       2.672367        72.7188 
  24   0.0000       2.756113        74.9976 
  25   0.0000       3.390176        92.2514 
  26   0.0000       3.831918       104.2718 
  27   0.0000       4.203236       114.3759 
  28   0.0000       5.428867       147.7270 
  29   0.0000       5.776473       157.1858 
  30   0.0000       5.776473       157.1858 
  31   0.0000       6.800961       185.0636 
  32   0.0000       6.875504       187.0920 
  33   0.0000       6.875508       187.0921 
  34   0.0000       6.903013       187.8405 
  35   0.0000       6.903023       187.8408 
  36   0.0000       7.017680       190.9608 
  37   0.0000       7.018369       190.9795 
  38   0.0000       7.111057       193.5017 
  39   0.0000       7.111075       193.5022 
  40   0.0000       7.119345       193.7272 
  41   0.0000       7.119400       193.7287 
  42   0.0000       7.185597       195.5300 
  43   0.0000       7.229776       196.7322 
  44   0.0000       7.230833       196.7610 
  45   0.0000       7.666583       208.6183 
  46   0.0000       7.895406       214.8449 
  47   0.0000       7.895428       214.8455 
  48   0.0000       8.521617       231.8850 
  49   0.0000       8.600301       234.0261 
  50   0.0000       9.061398       246.5732 
  51   0.0000      10.665083       290.2117 
  52   0.0000      10.665257       290.2164 
  53   0.0000      11.372167       309.4524 
  54   0.0000      11.372169       309.4525 
  55   0.0000      11.992803       326.3408 
  56   0.0000      15.080603       410.3641 
  57   0.0000      15.141886       412.0317 
  58   0.0000      15.969482       434.5517 
  59   0.0000      18.507809       503.6231 


---------------------------------------------
CAS-SCF STATES FOR BLOCK  1 MULT= 1 NROOTS= 1
---------------------------------------------

ROOT   0:  E=      -1.1008981074 Eh
      0.98769 [     0]: 20000000
      0.00476 [     8]: 02000000
      0.00345 [    15]: 00200000


--------------
DENSITY MATRIX
--------------

                  0          1          2          3          4          5    
      0       1.975375   0.000000  -0.000000   0.000000   0.000000  -0.000000
      1       0.000000   0.009512   0.000000   0.000000  -0.000000  -0.000000
      2      -0.000000   0.000000   0.006896  -0.000000  -0.000000  -0.000000
      3       0.000000   0.000000  -0.000000   0.004011   0.000000  -0.000000
      4       0.000000  -0.000000  -0.000000   0.000000   0.003958   0.000000
      5      -0.000000  -0.000000  -0.000000  -0.000000   0.000000   0.000131
      6       0.000000  -0.000000   0.000000  -0.000000   0.000000   0.000000
      7       0.000000  -0.000000  -0.000000  -0.000000  -0.000000   0.000000
                   6          7    
      0       0.000000   0.000000
      1      -0.000000  -0.000000
      2       0.000000  -0.000000
      3      -0.000000  -0.000000
      4       0.000000  -0.000000
      5       0.000000   0.000000
      6       0.000117  -0.000000
      7      -0.000000   0.000000
Trace of the electron density:  2.000000

-----------------
ENERGY COMPONENTS
-----------------

One electron energy          :     -2.849077796 Eh         -77.5273 eV
Two electron energy          :      0.692332347 Eh          18.8393 eV
Nuclear repulsion energy     :      1.055847342 Eh          28.7311 eV
                               ----------------
                                   -1.100898107

Kinetic energy               :      1.491198828 Eh          40.5776 eV
Potential energy             :     -2.592096935 Eh         -70.5345 eV
Virial ratio                 :     -1.738263796 
                               ----------------
                                   -1.100898107

Core energy                  :      1.055847342 Eh       28.7311 eV


----------------------------
LOEWDIN ORBITAL-COMPOSITIONS
----------------------------

                      0         1         2         3         4         5   
                  -0.67438   1.02252   1.11195   1.27825   1.27874   3.62570
                   1.97537   0.00951   0.00690   0.00401   0.00396   0.00013
                  --------  --------  --------  --------  --------  --------
 0 H  s              47.2      10.2      35.2       0.0       0.0       5.2
 0 H  pz              0.0       0.0       0.0       0.0      46.7       0.0
 0 H  px              2.4      34.8      12.4       0.0       0.0      30.2
 0 H  py              0.0       0.0       0.0      46.7       0.0       0.0
 0 H  dz2             0.1       1.1       0.5       0.0       0.0       3.2
 0 H  dxz             0.0       0.0       0.0       0.0       3.2       0.0
 0 H  dx2y2           0.2       3.4       1.6       0.0       0.0       8.8
 0 H  dxy             0.0       0.0       0.0       3.1       0.0       0.0
 0 H  f+1             0.0       0.2       0.1       0.0       0.0       1.0
 0 H  f+3             0.0       0.3       0.1       0.0       0.0       1.6
 0 H  f-3             0.0       0.0       0.0       0.1       0.0       0.0
 1 H  s              47.2      10.2      35.2       0.0       0.0       5.2
 1 H  pz              0.0       0.0       0.0       0.0      46.7       0.0
 1 H  px              2.4      34.8      12.4       0.0       0.0      30.2
 1 H  py              0.0       0.0       0.0      46.7       0.0       0.0
 1 H  dz2             0.1       1.1       0.5       0.0       0.0       3.2
 1 H  dxz             0.0       0.0       0.0       0.0       3.2       0.0
 1 H  dx2y2           0.2       3.4       1.6       0.0       0.0       8.8
 1 H  dxy             0.0       0.0       0.0       3.1       0.0       0.0
 1 H  f+1             0.0       0.2       0.1       0.0       0.0       1.0
 1 H  f+3             0.0       0.3       0.1       0.0       0.0       1.6
 1 H  f-3             0.0       0.0       0.0       0.1       0.0       0.0

                      6         7         8         9        10        11   
                   3.26952   0.19998   0.49844   0.77923   0.79983   1.12479
                   0.00012   0.00000   0.00000   0.00000   0.00000   0.00000
                  --------  --------  --------  --------  --------  --------
 0 H  s               0.0      48.5      46.6      36.1       0.0       2.5
 0 H  pz             18.3       0.0       0.0       0.0       0.0       0.0
 0 H  px              0.0       1.2       1.3      13.8       0.0      44.4
 0 H  py              0.0       0.0       0.0       0.0      40.7       0.0
 0 H  dz2             0.0       0.1       0.5       0.0       0.0       0.7
 0 H  dxz            26.4       0.0       0.0       0.0       0.0       0.0
 0 H  dx2y2           0.0       0.2       1.5       0.0       0.0       2.2
 0 H  dxy             0.0       0.0       0.0       0.0       9.3       0.0
 0 H  f0              1.9       0.0       0.0       0.0       0.0       0.0
 0 H  f+2             3.3       0.0       0.0       0.0       0.0       0.0
 1 H  s               0.0      48.5      46.6      36.1       0.0       2.5
 1 H  pz             18.3       0.0       0.0       0.0       0.0       0.0
 1 H  px              0.0       1.2       1.3      13.8       0.0      44.4
 1 H  py              0.0       0.0       0.0       0.0      40.7       0.0
 1 H  dz2             0.0       0.1       0.5       0.0       0.0       0.7
 1 H  dxz            26.4       0.0       0.0       0.0       0.0       0.0
 1 H  dx2y2           0.0       0.2       1.5       0.0       0.0       2.2
 1 H  dxy             0.0       0.0       0.0       0.0       9.3       0.0
 1 H  f0              1.9       0.0       0.0       0.0       0.0       0.0
 1 H  f+2             3.3       0.0       0.0       0.0       0.0       0.0

                     12        13        14        15        16        17   
                   1.16592   1.57430   1.57496   1.72920   2.00035   2.00039
                   0.00000   0.00000   0.00000   0.00000   0.00000   0.00000
                  --------  --------  --------  --------  --------  --------
 0 H  s               0.0       0.0       0.0      13.8       0.0       0.0
 0 H  pz             48.8       0.0      47.7       0.0       0.0       0.0
 0 H  px              0.0       0.0       0.0      25.7       0.0       0.0
 0 H  py              0.0      47.8       0.0       0.0       0.0       0.0
 0 H  dz2             0.0       0.0       0.0       2.6       0.0      37.2
 0 H  dxz             1.1       0.0       2.0       0.0       0.0       0.0
 0 H  dyz             0.0       0.0       0.0       0.0      49.9       0.0
 0 H  dx2y2           0.0       0.0       0.0       7.8       0.0      12.7
 0 H  dxy             0.0       2.0       0.0       0.0       0.0       0.0
 0 H  f+2             0.1       0.0       0.1       0.0       0.0       0.0
 0 H  f-3             0.0       0.2       0.0       0.0       0.0       0.0
 1 H  s               0.0       0.0       0.0      13.8       0.0       0.0
 1 H  pz             48.8       0.0      47.7       0.0       0.0       0.0
 1 H  px              0.0       0.0       0.0      25.7       0.0       0.0
 1 H  py              0.0      47.8       0.0       0.0       0.0       0.0
 1 H  dz2             0.0       0.0       0.0       2.6       0.0      37.2
 1 H  dxz             1.1       0.0       2.0       0.0       0.0       0.0
 1 H  dyz             0.0       0.0       0.0       0.0      49.9       0.0
 1 H  dx2y2           0.0       0.0       0.0       7.8       0.0      12.7
 1 H  dxy             0.0       2.0       0.0       0.0       0.0       0.0
 1 H  f+2             0.1       0.0       0.1       0.0       0.0       0.0
 1 H  f-3             0.0       0.2       0.0       0.0       0.0       0.0

                     18        19        20        21        22        23   
                   2.22137   2.55843   2.55844   2.61045   2.61098   2.67237
                   0.00000   0.00000   0.00000   0.00000   0.00000   0.00000
                  --------  --------  --------  --------  --------  --------
 0 H  s               0.0       0.0       0.0       0.0       0.0      29.9
 0 H  pz              0.0       0.0       0.0       4.4       0.0       0.0
 0 H  px              0.0       0.0       0.0       0.0       0.0       1.8
 0 H  py             11.2       0.0       0.0       0.0       4.3       0.0
 0 H  dz2             0.0      32.1       0.0       0.0       0.0       4.6
 0 H  dxz             0.0       0.0       0.0      40.5       0.0       0.0
 0 H  dyz             0.0       0.0      42.7       0.0       0.0       0.0
 0 H  dx2y2           0.0      10.6       0.0       0.0       0.0      13.6
 0 H  dxy            38.7       0.0       0.0       0.0      40.6       0.0
 0 H  f0              0.0       0.0       0.0       1.9       0.0       0.0
 0 H  f+1             0.0       4.6       0.0       0.0       0.0       0.0
 0 H  f-1             0.0       0.0       0.0       0.0       0.3       0.0
 0 H  f+2             0.0       0.0       0.0       3.2       0.0       0.0
 0 H  f-2             0.0       0.0       7.3       0.0       0.0       0.0
 0 H  f+3             0.0       2.7       0.0       0.0       0.0       0.0
 0 H  f-3             0.1       0.0       0.0       0.0       4.8       0.0
 1 H  s               0.0       0.0       0.0       0.0       0.0      29.9
 1 H  pz              0.0       0.0       0.0       4.4       0.0       0.0
 1 H  px              0.0       0.0       0.0       0.0       0.0       1.8
 1 H  py             11.2       0.0       0.0       0.0       4.3       0.0
 1 H  dz2             0.0      32.1       0.0       0.0       0.0       4.6
 1 H  dxz             0.0       0.0       0.0      40.5       0.0       0.0
 1 H  dyz             0.0       0.0      42.7       0.0       0.0       0.0
 1 H  dx2y2           0.0      10.6       0.0       0.0       0.0      13.6
 1 H  dxy            38.7       0.0       0.0       0.0      40.6       0.0
 1 H  f0              0.0       0.0       0.0       1.9       0.0       0.0
 1 H  f+1             0.0       4.6       0.0       0.0       0.0       0.0
 1 H  f-1             0.0       0.0       0.0       0.0       0.3       0.0
 1 H  f+2             0.0       0.0       0.0       3.2       0.0       0.0
 1 H  f-2             0.0       0.0       7.3       0.0       0.0       0.0
 1 H  f+3             0.0       2.7       0.0       0.0       0.0       0.0
 1 H  f-3             0.1       0.0       0.0       0.0       4.8       0.0

                     24        25        26        27        28        29   
                   2.75611   3.39018   3.83192   4.20324   5.42887   5.77647
                   0.00000   0.00000   0.00000   0.00000   0.00000   0.00000
                  --------  --------  --------  --------  --------  --------
 0 H  s               4.3       0.0      32.3       0.0       5.7       0.0
 0 H  pz              0.0       8.1       0.0       0.0       0.0       0.0
 0 H  px              7.9       0.0      11.4       0.0      13.1       0.0
 0 H  py              0.0       0.0       0.0      23.0       0.0       0.0
 0 H  dz2             7.7       0.0       0.9       0.0       3.1       0.0
 0 H  dxz             0.0      32.7       0.0       0.0       0.0       0.0
 0 H  dx2y2          23.2       0.0       2.7       0.0       8.8       0.0
 0 H  dxy             0.0       0.0       0.0      13.3       0.0       0.0
 0 H  f0              0.0       3.4       0.0       0.0       0.0       0.0
 0 H  f+1             2.6       0.0       1.0       0.0       7.2       0.0
 0 H  f-1             0.0       0.0       0.0       0.9       0.0      46.9
 0 H  f+2             0.0       5.8       0.0       0.0       0.0       0.0
 0 H  f+3             4.3       0.0       1.7       0.0      12.1       0.0
 0 H  f-3             0.0       0.0       0.0      12.8       0.0       3.1
 1 H  s               4.3       0.0      32.3       0.0       5.7       0.0
 1 H  pz              0.0       8.1       0.0       0.0       0.0       0.0
 1 H  px              7.9       0.0      11.4       0.0      13.1       0.0
 1 H  py              0.0       0.0       0.0      23.0       0.0       0.0
 1 H  dz2             7.7       0.0       0.9       0.0       3.1       0.0
 1 H  dxz             0.0      32.7       0.0       0.0       0.0       0.0
 1 H  dx2y2          23.2       0.0       2.7       0.0       8.8       0.0
 1 H  dxy             0.0       0.0       0.0      13.3       0.0       0.0
 1 H  f0              0.0       3.4       0.0       0.0       0.0       0.0
 1 H  f+1             2.6       0.0       1.0       0.0       7.2       0.0
 1 H  f-1             0.0       0.0       0.0       0.9       0.0      46.9
 1 H  f+2             0.0       5.8       0.0       0.0       0.0       0.0
 1 H  f+3             4.3       0.0       1.7       0.0      12.1       0.0
 1 H  f-3             0.0       0.0       0.0      12.8       0.0       3.1

                     30        31        32        33        34        35   
                   5.77647   6.80096   6.87550   6.87551   6.90301   6.90302
                   0.00000   0.00000   0.00000   0.00000   0.00000   0.00000
                  --------  --------  --------  --------  --------  --------
 0 H  s               0.0      11.5       0.0       0.0       0.0       0.0
 0 H  px              0.0       7.8       0.0       0.0       0.0       0.0
 0 H  dz2             0.0       7.6      10.4       0.0       3.5       0.0
 0 H  dyz             0.0       0.0       0.0      13.8       0.0       4.6
 0 H  dx2y2           0.0      23.0       3.4       0.0       1.2       0.0
 0 H  f0             31.3       0.0       0.0       0.0       0.0       0.0
 0 H  f+1             0.0       0.0      22.6       0.0      28.1       0.0
 0 H  f+2            18.7       0.0       0.0       0.0       0.0       0.0
 0 H  f-2             0.0       0.0       0.0      36.2       0.0      45.4
 0 H  f+3             0.0       0.1      13.6       0.0      17.2       0.0
 1 H  s               0.0      11.5       0.0       0.0       0.0       0.0
 1 H  px              0.0       7.8       0.0       0.0       0.0       0.0
 1 H  dz2             0.0       7.6      10.4       0.0       3.5       0.0
 1 H  dyz             0.0       0.0       0.0      13.8       0.0       4.6
 1 H  dx2y2           0.0      23.0       3.4       0.0       1.2       0.0
 1 H  f0             31.3       0.0       0.0       0.0       0.0       0.0
 1 H  f+1             0.0       0.0      22.6       0.0      28.1       0.0
 1 H  f+2            18.7       0.0       0.0       0.0       0.0       0.0
 1 H  f-2             0.0       0.0       0.0      36.2       0.0      45.4
 1 H  f+3             0.0       0.1      13.6       0.0      17.2       0.0

                     36        37        38        39        40        41   
                   7.01768   7.01837   7.11106   7.11107   7.11934   7.11940
                   0.00000   0.00000   0.00000   0.00000   0.00000   0.00000
                  --------  --------  --------  --------  --------  --------
 0 H  pz              0.0      25.3       7.2       0.0       0.0       0.0
 0 H  py             25.3       0.0       0.0       7.1       0.0       0.0
 0 H  dxz             0.0       0.7       7.6       0.0       0.0       0.0
 0 H  dxy             0.7       0.0       0.0       7.5       0.0       0.0
 0 H  f0              0.0       9.0      13.0       0.0      31.6       0.0
 0 H  f-1             1.5       0.0       0.0       2.2       0.0      46.9
 0 H  f+2             0.0      15.0      22.3       0.0      18.4       0.0
 0 H  f-3            22.5       0.0       0.0      33.2       0.0       3.1
 1 H  pz              0.0      25.3       7.2       0.0       0.0       0.0
 1 H  py             25.3       0.0       0.0       7.1       0.0       0.0
 1 H  dxz             0.0       0.7       7.6       0.0       0.0       0.0
 1 H  dxy             0.7       0.0       0.0       7.5       0.0       0.0
 1 H  f0              0.0       9.0      13.0       0.0      31.6       0.0
 1 H  f-1             1.5       0.0       0.0       2.2       0.0      46.9
 1 H  f+2             0.0      15.0      22.3       0.0      18.4       0.0
 1 H  f-3            22.5       0.0       0.0      33.2       0.0       3.1

                     42        43        44        45        46        47   
                   7.18560   7.22978   7.23083   7.66658   7.89541   7.89543
                   0.00000   0.00000   0.00000   0.00000   0.00000   0.00000
                  --------  --------  --------  --------  --------  --------
 0 H  s               1.6       0.0       0.0       4.7       0.0       0.0
 0 H  pz              0.0      10.2       0.0       0.0       0.0       0.0
 0 H  px             24.7       0.0       0.0       7.4       0.0       0.0
 0 H  py              0.0       0.0      10.2       0.0       0.0       0.0
 0 H  dz2             0.1       0.0       0.0       1.5      33.9       0.0
 0 H  dxz             0.0      30.6       0.0       0.0       0.0       0.0
 0 H  dyz             0.0       0.0       0.0       0.0       0.0      45.5
 0 H  dx2y2           0.2       0.0       0.0       4.5      11.5       0.0
 0 H  dxy             0.0       0.0      30.6       0.0       0.0       0.0
 0 H  f0              0.0       3.5       0.0       0.0       0.0       0.0
 0 H  f+1             9.0       0.0       0.0      12.0       2.8       0.0
 0 H  f-1             0.0       0.0       0.6       0.0       0.0       0.0
 0 H  f+2             0.0       5.8       0.0       0.0       0.0       0.0
 0 H  f-2             0.0       0.0       0.0       0.0       0.0       4.5
 0 H  f+3            14.4       0.0       0.0      19.9       1.8       0.0
 0 H  f-3             0.0       0.0       8.6       0.0       0.0       0.0
 1 H  s               1.6       0.0       0.0       4.7       0.0       0.0
 1 H  pz              0.0      10.2       0.0       0.0       0.0       0.0
 1 H  px             24.7       0.0       0.0       7.4       0.0       0.0
 1 H  py              0.0       0.0      10.2       0.0       0.0       0.0
 1 H  dz2             0.1       0.0       0.0       1.5      33.9       0.0
 1 H  dxz             0.0      30.6       0.0       0.0       0.0       0.0
 1 H  dyz             0.0       0.0       0.0       0.0       0.0      45.5
 1 H  dx2y2           0.2       0.0       0.0       4.5      11.5       0.0
 1 H  dxy             0.0       0.0      30.6       0.0       0.0       0.0
 1 H  f0              0.0       3.5       0.0       0.0       0.0       0.0
 1 H  f+1             9.0       0.0       0.0      12.0       2.8       0.0
 1 H  f-1             0.0       0.0       0.6       0.0       0.0       0.0
 1 H  f+2             0.0       5.8       0.0       0.0       0.0       0.0
 1 H  f-2             0.0       0.0       0.0       0.0       0.0       4.5
 1 H  f+3            14.4       0.0       0.0      19.9       1.8       0.0
 1 H  f-3             0.0       0.0       8.6       0.0       0.0       0.0

                     48        49        50        51        52        53   
                   8.52162   8.60030   9.06140  10.66508  10.66526  11.37217
                   0.00000   0.00000   0.00000   0.00000   0.00000   0.00000
                  --------  --------  --------  --------  --------  --------
 0 H  s               0.0       1.2       0.0       0.0       0.0       0.0
 0 H  pz             47.3       0.0       0.0      15.7       0.0       0.0
 0 H  px              0.0       7.6       0.0       0.0       0.0       0.0
 0 H  py              0.0       0.0      44.6       0.0      15.7       0.0
 0 H  dz2             0.0       9.6       0.0       0.0       0.0      32.6
 0 H  dxz             2.7       0.0       0.0      22.9       0.0       0.0
 0 H  dx2y2           0.0      28.4       0.0       0.0       0.0      10.9
 0 H  dxy             0.0       0.0       4.6       0.0      23.0       0.0
 0 H  f0              0.0       0.0       0.0       4.3       0.0       0.0
 0 H  f+1             0.0       1.2       0.0       0.0       0.0       4.1
 0 H  f-1             0.0       0.0       0.1       0.0       0.7       0.0
 0 H  f+2             0.0       0.0       0.0       7.1       0.0       0.0
 0 H  f+3             0.0       2.0       0.0       0.0       0.0       2.4
 0 H  f-3             0.0       0.0       0.8       0.0      10.7       0.0
 1 H  s               0.0       1.2       0.0       0.0       0.0       0.0
 1 H  pz             47.3       0.0       0.0      15.7       0.0       0.0
 1 H  px              0.0       7.6       0.0       0.0       0.0       0.0
 1 H  py              0.0       0.0      44.6       0.0      15.7       0.0
 1 H  dz2             0.0       9.6       0.0       0.0       0.0      32.6
 1 H  dxz             2.7       0.0       0.0      22.9       0.0       0.0
 1 H  dx2y2           0.0      28.4       0.0       0.0       0.0      10.9
 1 H  dxy             0.0       0.0       4.6       0.0      23.0       0.0
 1 H  f0              0.0       0.0       0.0       4.3       0.0       0.0
 1 H  f+1             0.0       1.2       0.0       0.0       0.0       4.1
 1 H  f-1             0.0       0.0       0.1       0.0       0.7       0.0
 1 H  f+2             0.0       0.0       0.0       7.1       0.0       0.0
 1 H  f+3             0.0       2.0       0.0       0.0       0.0       2.4
 1 H  f-3             0.0       0.0       0.8       0.0      10.7       0.0

                     54        55        56        57        58        59   
                  11.37217  11.99280  15.08060  15.14189  15.96948  18.50781
                   0.00000   0.00000   0.00000   0.00000   0.00000   0.00000
                  --------  --------  --------  --------  --------  --------
 0 H  s               0.0      11.2       0.0       0.0      27.4      24.9
 0 H  pz              0.0       0.0      20.3       0.0       0.0       0.0
 0 H  px              0.0      20.9       0.0       0.0      19.2      12.1
 0 H  py              0.0       0.0       0.0      23.4       0.0       0.0
 0 H  dz2             0.0       2.7       0.0       0.0       0.7       3.1
 0 H  dxz             0.0       0.0      29.6       0.0       0.0       0.0
 0 H  dyz            43.5       0.0       0.0       0.0       0.0       0.0
 0 H  dx2y2           0.0       8.0       0.0       0.0       2.2       9.1
 0 H  dxy             0.0       0.0       0.0      26.6       0.0       0.0
 0 H  f+1             0.0       2.7       0.0       0.0       0.2       0.3
 0 H  f-2             6.5       0.0       0.0       0.0       0.0       0.0
 0 H  f+3             0.0       4.6       0.0       0.0       0.3       0.6
 1 H  s               0.0      11.2       0.0       0.0      27.4      24.9
 1 H  pz              0.0       0.0      20.3       0.0       0.0       0.0
 1 H  px              0.0      20.9       0.0       0.0      19.2      12.1
 1 H  py              0.0       0.0       0.0      23.4       0.0       0.0
 1 H  dz2             0.0       2.7       0.0       0.0       0.7       3.1
 1 H  dxz             0.0       0.0      29.6       0.0       0.0       0.0
 1 H  dyz            43.5       0.0       0.0       0.0       0.0       0.0
 1 H  dx2y2           0.0       8.0       0.0       0.0       2.2       9.1
 1 H  dxy             0.0       0.0       0.0      26.6       0.0       0.0
 1 H  f+1             0.0       2.7       0.0       0.0       0.2       0.3
 1 H  f-2             6.5       0.0       0.0       0.0       0.0       0.0
 1 H  f+3             0.0       4.6       0.0       0.0       0.3       0.6


----------------------------
LOEWDIN REDUCED ACTIVE MOs  
----------------------------

                      0         1         2         3         4         5   
                  -0.67438   1.02252   1.11195   1.27825   1.27874   3.62570
                   1.97537   0.00951   0.00690   0.00401   0.00396   0.00013
                  --------  --------  --------  --------  --------  --------
 0 H  s              47.2      10.2      35.2       0.0       0.0       5.2
 0 H  pz              0.0       0.0       0.0       0.0      46.7       0.0
 0 H  px              2.4      34.8      12.4       0.0       0.0      30.2
 0 H  py              0.0       0.0       0.0      46.7       0.0       0.0
 0 H  dx2y2           0.2       3.4       1.6       0.0       0.0       8.8
 1 H  s              47.2      10.2      35.2       0.0       0.0       5.2
 1 H  pz              0.0       0.0       0.0       0.0      46.7       0.0
 1 H  px              2.4      34.8      12.4       0.0       0.0      30.2
 1 H  py              0.0       0.0       0.0      46.7       0.0       0.0
 1 H  dx2y2           0.2       3.4       1.6       0.0       0.0       8.8

                      6         7         8         9        10        11   
                   3.26952   0.19998   0.49844   0.77923   0.79983   1.12479
                   0.00012   0.00000   0.00000   0.00000   0.00000   0.00000
                  --------  --------  --------  --------  --------  --------
 0 H  s               0.0      48.5      46.6      36.1       0.0       2.5
 0 H  pz             18.3       0.0       0.0       0.0       0.0       0.0
 0 H  px              0.0       1.2       1.3      13.8       0.0      44.4
 0 H  py              0.0       0.0       0.0       0.0      40.7       0.0
 0 H  dxz            26.4       0.0       0.0       0.0       0.0       0.0
 0 H  dxy             0.0       0.0       0.0       0.0       9.3       0.0
 1 H  s               0.0      48.5      46.6      36.1       0.0       2.5
 1 H  pz             18.3       0.0       0.0       0.0       0.0       0.0
 1 H  px              0.0       1.2       1.3      13.8       0.0      44.4
 1 H  py              0.0       0.0       0.0       0.0      40.7       0.0
 1 H  dxz            26.4       0.0       0.0       0.0       0.0       0.0
 1 H  dxy             0.0       0.0       0.0       0.0       9.3       0.0

------------------------------------------------------------------------------
                           ORCA POPULATION ANALYSIS
------------------------------------------------------------------------------
Input electron density              ... H2_0_1_CASSCF-2-8_def2-qzvpp.sp.scfp
BaseName (.gbw .S,...)              ... H2_0_1_CASSCF-2-8_def2-qzvpp.sp

                    ********************************
                    * MULLIKEN POPULATION ANALYSIS *
                    ********************************

-----------------------
MULLIKEN ATOMIC CHARGES
-----------------------
   0 H :    0.000000
   1 H :   -0.000000
Sum of atomic charges:   -0.0000000

--------------------------------
MULLIKEN REDUCED ORBITAL CHARGES
--------------------------------
  0 H s       :     0.982241  s :     0.982241
      pz      :     0.001944  p :     0.017402
      px      :     0.013549
      py      :     0.001910
      dz2     :     0.000031  d :     0.000344
      dxz     :     0.000093
      dyz     :     0.000000
      dx2y2   :     0.000125
      dxy     :     0.000095
      f0      :     0.000001  f :     0.000013
      f+1     :     0.000005
      f-1     :     0.000000
      f+2     :     0.000001
      f-2     :     0.000000
      f+3     :     0.000006
      f-3     :     0.000001
  1 H s       :     0.982241  s :     0.982241
      pz      :     0.001944  p :     0.017402
      px      :     0.013549
      py      :     0.001910
      dz2     :     0.000031  d :     0.000344
      dxz     :     0.000093
      dyz     :     0.000000
      dx2y2   :     0.000125
      dxy     :     0.000095
      f0      :     0.000001  f :     0.000013
      f+1     :     0.000005
      f-1     :     0.000000
      f+2     :     0.000001
      f-2     :     0.000000
      f+3     :     0.000006
      f-3     :     0.000001

------------------------
MULLIKEN OVERLAP CHARGES
------------------------
B(  0-H ,  1-H ) :   0.9031 


                     *******************************
                     * LOEWDIN POPULATION ANALYSIS *
                     *******************************

----------------------
LOEWDIN ATOMIC CHARGES
----------------------
   0 H :    0.000000
   1 H :   -0.000000

-------------------------------
LOEWDIN REDUCED ORBITAL CHARGES
-------------------------------
  0 H s       :     0.936146  s :     0.936146
      pz      :     0.001868  p :     0.056107
      px      :     0.052364
      py      :     0.001874
      dz2     :     0.001687  d :     0.007061
      dxz     :     0.000158
      dyz     :     0.000000
      dx2y2   :     0.005091
      dxy     :     0.000125
      f0      :     0.000004  f :     0.000686
      f+1     :     0.000252
      f-1     :     0.000000
      f+2     :     0.000007
      f-2     :     0.000000
      f+3     :     0.000417
      f-3     :     0.000006
  1 H s       :     0.936146  s :     0.936146
      pz      :     0.001868  p :     0.056107
      px      :     0.052364
      py      :     0.001874
      dz2     :     0.001687  d :     0.007061
      dxz     :     0.000158
      dyz     :     0.000000
      dx2y2   :     0.005091
      dxy     :     0.000125
      f0      :     0.000004  f :     0.000686
      f+1     :     0.000252
      f-1     :     0.000000
      f+2     :     0.000007
      f-2     :     0.000000
      f+3     :     0.000417
      f-3     :     0.000006

---------------------------------
LOEWDIN BOND ORDERS (THRESH 0.050000)
---------------------------------
B(  0-H ,  1-H ) :   0.9754 


                      *****************************
                      * MAYER POPULATION ANALYSIS *
                      *****************************

  NA   - Mulliken gross atomic population
  ZA   - Total nuclear charge
  QA   - Mulliken gross atomic charge
  VA   - Mayer's total valence
  BVA  - Mayer's bonded valence
  FA   - Mayer's free valence

  ATOM       NA         ZA         QA         VA         BVA        FA
  0 H      1.0000     1.0000     0.0000     1.0222     0.9734     0.0489
  1 H      1.0000     1.0000    -0.0000     1.0222     0.9734     0.0489

  Mayer bond orders larger than 0.100000
B(  0-H ,  1-H ) :   0.9734 


-------------------------------------------------------------
 Forming the transition density       ... done in 0.001744 sec
-------------------------------------------------------------



==========================================
CASSCF UV, CD spectra and dipole moments
==========================================
-------------------
ABSORPTION SPECTRUM
-------------------

Center of mass           = (  0.4736,  0.0000,  0.0000)
Nuclear contribution to the dipole moment =     0.000000,    0.000000,    0.000000 au

Calculating the dipole integrals                  ... done
Transforming integrals                            ... done
Calculating the Linear Momentum integrals         ... done
Transforming integrals                            ... done
Calculating the Angular Momentum integrals        ... done
Transforming integrals                            ... done

Ground state mult:    1
Ground state block:   0
Ground state root:    0


------------------------------------------------------------------------------
                                 DIPOLE MOMENTS
------------------------------------------------------------------------------
  Root  Block           TX        TY        TZ           |T|
                      (Debye)   (Debye)   (Debye)      (Debye)
------------------------------------------------------------------------------
    0    0           -0.00000   0.00000   0.00000      0.00000

--------------
CASSCF TIMINGS
--------------

Total time                       ...        3.1 sec
Sum of individual times          ...        2.8 sec ( 92.7%)

Calculation of AO operators
   F(Core) operator              ...        0.0 sec (  0.7%)
   G(Act) operator               ...        0.8 sec ( 26.3%)
   J(AO) operators               ...        0.0 sec (  0.0%)
Calculation of MO transformed quantities
   J(MO) operators               ...        1.8 sec ( 58.6%)
   (pq|rs) integrals             ...        0.0 sec (  0.0%)
   AO->MO one electron integrals ...        0.0 sec (  0.0%)
Configuration interaction steps
   CI-setup phase                ...        0.0 sec (  0.0%)
   CI-solution phase             ...        0.2 sec (  5.9%)
   Generation of densities       ...        0.0 sec (  0.2%)
Orbital improvement steps
   Orbital gradient              ...        0.0 sec (  0.5%)
   O(1) converger                ...        0.0 sec (  0.2%)
Properties                       ...        0.0 sec (  0.2%)
   SOC integral calculation      ...        0.0 sec (  0.0%)
   SSC RMEs (incl. integrals)    ...        0.0 sec (  0.0%)
   SOC RMEs                      ...        0.0 sec (  0.0%)

-------------------------   --------------------
FINAL SINGLE POINT ENERGY        -1.100898107367
-------------------------   --------------------

Storing actual gbw-file in H2_0_1_CASSCF-2-8_def2-qzvpp.sp.001.gbw ... done

                            ***************************************
                            *     ORCA property calculations      *
                            ***************************************

                                    ---------------------
                                    Active property flags
                                    ---------------------
   (+) Dipole Moment


------------------------------------------------------------------------------
                       ORCA ELECTRIC PROPERTIES CALCULATION
------------------------------------------------------------------------------

Dipole Moment Calculation                       ... on
Quadrupole Moment Calculation                   ... off
Polarizability Calculation                      ... off
GBWName                                         ... H2_0_1_CASSCF-2-8_def2-qzvpp.sp.gbw
Electron density file                           ... H2_0_1_CASSCF-2-8_def2-qzvpp.sp.scfp
The origin for moment calculation is the CENTER OF MASS  = ( 0.473553,  0.000000  0.000000)

-------------
DIPOLE MOMENT
-------------
                                X             Y             Z
Electronic contribution:     -0.00000       0.00000       0.00000
Nuclear contribution   :      0.00000       0.00000       0.00000
                        -----------------------------------------
Total Dipole Moment    :     -0.00000       0.00000       0.00000
                        -----------------------------------------
Magnitude (a.u.)       :      0.00000
Magnitude (Debye)      :      0.00000



--------------------
Rotational spectrum 
--------------------
 
Rotational constants in cm-1:     0.000000   133.157724   133.157724 
Rotational constants in MHz :     0.000000 3991968.149099 3991968.149099 

 Dipole components along the rotational axes: 
x,y,z [a.u.] :    -0.000000     0.000000     0.000000 
x,y,z [Debye]:    -0.000000     0.000000     0.000000 

 

         *************************************************************
                                TRAJECTORY STEP   2
                RHH  :   0.60842987
         *************************************************************
---------------------------------
CARTESIAN COORDINATES (ANGSTROEM)
---------------------------------
  H      0.000000    0.000000    0.000000
  H      0.608430    0.000000    0.000000

----------------------------
CARTESIAN COORDINATES (A.U.)
----------------------------
  NO LB      ZA    FRAG     MASS         X           Y           Z
   0 H     1.0000    0     1.008    0.000000    0.000000    0.000000
   1 H     1.0000    0     1.008    1.149766    0.000000    0.000000

--------------------------------
INTERNAL COORDINATES (ANGSTROEM)
--------------------------------
 H      0   0   0     0.000000000000     0.00000000     0.00000000
 H      1   0   0     0.608429869077     0.00000000     0.00000000

---------------------------
INTERNAL COORDINATES (A.U.)
---------------------------
 H      0   0   0     0.000000000000     0.00000000     0.00000000
 H      1   0   0     1.149765824252     0.00000000     0.00000000


Diagonalization of the overlap matrix:
Smallest eigenvalue                        ... 8.441e-05
Time for diagonalization                   ...    0.002 sec
Threshold for overlap eigenvalues          ... 1.000e-08
Number of eigenvalues below threshold      ... 0
Time for construction of square roots      ...    0.002 sec
Total time needed                          ...    0.003 sec



 ... the calculation is a CASSCF calculation -I'm leaving here GOOD LUCK!!!

-------------------------------------------------------------------------------
                              ORCA-CASSCF
-------------------------------------------------------------------------------

Setting up the integral package       ... done
Building the CAS space                ... done (36 configurations for Mult=1)
----------------
GENERAL CI SETUP
----------------

Checking configurations                         ... done
Determining NSOMO,NDOMO and NVMO                ... done
Building up the tree                            ... done
Building N-1 electron tree                      ... done
Building RI configuration space                 ... done
Analyzing the RI configuration space            ... done
Determining NDOMO,NSOMO,NVMO for RI space       ... done
Determination of address arrays                 ... done
Looking for max. no of open shells              ... done
Setting up coupling coefficient container       ... Memory for address arrays  		      ... done
Make address arrays			      ... done
Memory for buffers 			      ... done
Setting up spin-function prototypes	      ... (MAXOPEN=2) 0 2 4 done
Trivial cases - DOMO's			      ... done (  0.0 MB)
Number of open shells			    ...  0
domo->virtual excitations			... done (  0.0 MB)
domo->somo excitations				... done (  0.0 MB)
somo->virtual excitations			... done (  0.0 MB)
somo->somo excitations				... done (  0.0 MB)
Number of open shells			    ...  2
domo->virtual excitations			... done (  0.0 MB)
domo->somo excitations				... done (  0.0 MB)
somo->virtual excitations			... done (  0.0 MB)
somo->somo excitations				... done (  0.0 MB)
Coupling container construction done
done
Now recording sub-block dimensions              ... done
Memory used for TGeneralCI arrays =     0.0 MB
  Original space  =     0.0
  RI       space  =     0.0
  Address arrays  =     0.0
  Coupling coeffs =     0.0
Multiplicity                          ...       1
# of electrons                        ...       2
# of orbitals                         ...       8
# of roots requested                  ...       1
Configuration space:
# of configurations                   ...      36
# of CSF's                            ...      36
# of rejected configurations          ...       0
Min. # of SOMOs                       ...       0
Max. # of SOMOs                       ...       2
Max. # of DOMOs                       ...       1
Max. # of VMOs                        ...       7
RI Configuration space:
# of configurations                   ...      36
# of CSF's                            ...      36
# of rejected configurations          ...       0
Min. # of SOMOs                       ...       0
Max. # of SOMOs                       ...       2
Max. # of DOMOs                       ...       1
Max. # of VMOs                        ...       7
(N-1) Electron Configuration space:
# of configurations                   ...       8
CSF dimensions:
      0 SOMOs give     1 CSFs
      2 SOMOs give     1 CSFs


SYSTEM-SPECIFIC SETTINGS:
Number of active electrons          ...    2
Number of active orbitals           ...    8
Total number of electrons           ...    2
Total number of orbitals            ...   60

Determined orbital ranges:
   Internal       0 -   -1 (   0 orbitals)
   Active         0 -    7 (   8 orbitals)
   External       8 -   59 (  52 orbitals)
Number of rotation parameters      ...    416

CI-STEP:
CI strategy                         ... General CI
Number of multiplicity blocks       ...    1
BLOCK  1 WEIGHT=   1.0000
  Multiplicity                      ...    1
  #(Configurations)                 ...   36
  #(CSFs)                           ...   36
  #(Roots)                          ...    1
    ROOT=0 WEIGHT=    1.000000

  PrintLevel                        ...    1
  N(GuessMat)                       ...       512
  MaxDim(CI)                        ...        10
  MaxIter(CI)                       ...        64
  Energy Tolerance CI               ...  2.50e-09
  Residual Tolerance CI             ...  2.50e-09
  Shift(CI)                         ...  1.00e-04

INTEGRAL-TRANSFORMATION-STEP:
  Algorithm                         ... EXACT

ORBITAL-IMPROVEMENT-STEP:
  Algorithm                         ... SuperCI(PT)
  Default Parametrization           ... CAYLEY
  Act-Act rotations                 ... depends on algorithm used

  Note: SuperCI(PT) will ignore FreezeIE, FreezeAct and FreezeGrad. In general Default settings are encouraged.
        In conjunction with ShiftUp, ShiftDn or GradScaling the performance of SuperCI(PT) is less optimal.  

  MaxRot                            ... 2.00e-01 
  Max. no of vectors (DIIS)         ... 15
  DThresh (cut-off) metric          ... 1.00e-06
  Switch step at gradient           ...  3.00e-02 
  Switch step at iteration          ...        50   
  Switch step to                    ... SuperCI(PT)    

SCF-SETTINGS:
  Incremental                       ... on
  RIJCOSX approximation             ... off
  RI-JK approximation               ... off
  AO integral handling              ... DIRECT
  Integral Neglect Thresh           ...  2.50e-11
  Primitive cutoff TCut             ...  2.50e-12
  Energy convergence tolerance      ...  2.50e-08
  Orbital gradient convergence      ...  2.50e-04
  Max. number of iterations         ...        75  


FINAL ORBITALS:
  Active   Orbitals                 ... natural 
  Internal Orbitals                 ... canonical 
  External Orbitals                 ... canonical 

------------------
CAS-SCF ITERATIONS
------------------


MACRO-ITERATION   1: 
   --- Inactive Energy E0 = 0.86974232 Eh
CI-ITERATION   0: 
    -1.154146811   0.000000000000 (    0.00)
   CI-PROBLEM SOLVED
   DENSITIES MADE

                 <<<<<<<<<<<<<<<<<<INITIAL CI STATE CHECK>>>>>>>>>>>>>>>>>>

BLOCK  1 MULT= 1 NROOTS= 1 
ROOT   0:  E=      -1.1541468111 Eh
      0.98433 [     0]: 20000000
      0.00655 [     8]: 02000000
      0.00296 [    15]: 00200000

                 <<<<<<<<<<<<<<<<<<INITIAL CI STATE CHECK>>>>>>>>>>>>>>>>>>

   E(CAS)=    -1.154146811 Eh DE=     0.000000000
   --- Energy gap subspaces: Ext-Act = -2.716   Act-Int = 0.600
   N(occ)=  1.97076 0.01311 0.00783 0.00395 0.00389 0.00033 0.00012 0.00001
   ||g|| =      0.125794336 Max(G)=    -0.100584756 Rot=59,0
   --- Orbital Update [SuperCI(PT)]
   --- Canonicalize Internal Space
   --- Canonicalize External Space
   --- SX_PT (Skipped TA=0 IT=0): ||X|| =      1.436384387 Max(X)(27,7) =     -0.814137678 
   --- SFit(Active Orbitals)

MACRO-ITERATION   2: 
   --- Inactive Energy E0 = 0.86974232 Eh
CI-ITERATION   0: 
    -1.154696589   0.000000000000 (    0.00)
   CI-PROBLEM SOLVED
   DENSITIES MADE
   E(CAS)=    -1.154696589 Eh DE=    -0.000549778
   --- Energy gap subspaces: Ext-Act = -2.610   Act-Int = 0.600
   N(occ)=  1.96976 0.01332 0.00811 0.00415 0.00409 0.00038 0.00013 0.00007
   ||g|| =      0.008920903 Max(G)=    -0.005862008 Rot=42,0
   --- Orbital Update [SuperCI(PT)]
   --- Canonicalize Internal Space
   --- Canonicalize External Space
   --- SX_PT (Skipped TA=0 IT=0): ||X|| =      0.780894171 Max(X)(9,7) =      0.537145122 
   --- SFit(Active Orbitals)

MACRO-ITERATION   3: 
   --- Inactive Energy E0 = 0.86974232 Eh
CI-ITERATION   0: 
    -1.154980510   0.000000000000 (    0.00)
   CI-PROBLEM SOLVED
   DENSITIES MADE
   E(CAS)=    -1.154980510 Eh DE=    -0.000283921
   --- Energy gap subspaces: Ext-Act = -3.478   Act-Int = 0.600
   N(occ)=  1.96907 0.01352 0.00833 0.00425 0.00419 0.00040 0.00013 0.00011
   ||g|| =      0.005090734 Max(G)=     0.003218896 Rot=59,0
   --- Orbital Update [SuperCI(PT)]
   --- Canonicalize Internal Space
   --- Canonicalize External Space
   --- SX_PT (Skipped TA=0 IT=0): ||X|| =      0.376563498 Max(X)(8,7) =      0.309299879 
   --- SFit(Active Orbitals)

MACRO-ITERATION   4: 
   --- Inactive Energy E0 = 0.86974232 Eh
CI-ITERATION   0: 
    -1.155061120   0.000000000000 (    0.00)
   CI-PROBLEM SOLVED
   DENSITIES MADE
   E(CAS)=    -1.155061120 Eh DE=    -0.000080610
   --- Energy gap subspaces: Ext-Act = -3.403   Act-Int = 0.600
   N(occ)=  1.96896 0.01359 0.00834 0.00425 0.00419 0.00040 0.00013 0.00014
   ||g|| =      0.000899000 Max(G)=    -0.000466584 Rot=23,0
   --- Orbital Update [SuperCI(PT)]
   --- Canonicalize Internal Space
   --- Canonicalize External Space
   --- SX_PT (Skipped TA=0 IT=0): ||X|| =      0.145944178 Max(X)(11,7) =     -0.097614869 
   --- SFit(Active Orbitals)

MACRO-ITERATION   5: 
   --- Inactive Energy E0 = 0.86974232 Eh
CI-ITERATION   0: 
    -1.155085429   0.000000000000 (    0.00)
   CI-PROBLEM SOLVED
   DENSITIES MADE
   E(CAS)=    -1.155085429 Eh DE=    -0.000024308
   --- Energy gap subspaces: Ext-Act = -2.810   Act-Int = 0.600
   N(occ)=  1.96889 0.01365 0.00832 0.00425 0.00418 0.00040 0.00013 0.00017
   ||g|| =      0.000724755 Max(G)=    -0.000380138 Rot=42,0
   --- Orbital Update [SuperCI(PT)]
   --- Canonicalize Internal Space
   --- Canonicalize External Space
   --- SX_PT (Skipped TA=0 IT=0): ||X|| =      0.038595457 Max(X)(8,7) =      0.023044061 
   --- SFit(Active Orbitals)

MACRO-ITERATION   6: 
   --- Inactive Energy E0 = 0.86974232 Eh
CI-ITERATION   0: 
    -1.155087994   0.000000000000 (    0.00)
   CI-PROBLEM SOLVED
   DENSITIES MADE
   E(CAS)=    -1.155087994 Eh DE=    -0.000002565
   --- Energy gap subspaces: Ext-Act = -2.620   Act-Int = 0.600
   N(occ)=  1.96885 0.01368 0.00832 0.00425 0.00419 0.00040 0.00013 0.00018
   ||g|| =      0.000760542 Max(G)=    -0.000418347 Rot=42,0
   --- Orbital Update [SuperCI(PT)]
   --- Canonicalize Internal Space
   --- Canonicalize External Space
   --- SX_PT (Skipped TA=0 IT=0): ||X|| =      0.022618303 Max(X)(11,7) =      0.012326705 
   --- SFit(Active Orbitals)

MACRO-ITERATION   7: 
   --- Inactive Energy E0 = 0.86974232 Eh
CI-ITERATION   0: 
    -1.155088127   0.000000000000 (    0.00)
   CI-PROBLEM SOLVED
   DENSITIES MADE
   E(CAS)=    -1.155088127 Eh DE=    -0.000000133
   --- Energy gap subspaces: Ext-Act = -2.678   Act-Int = 0.600
   N(occ)=  1.96885 0.01367 0.00832 0.00425 0.00419 0.00040 0.00013 0.00018
   ||g|| =      0.000174255 Max(G)=    -0.000086335 Rot=42,0
                     ---- THE CAS-SCF GRADIENT HAS CONVERGED ----
                            --- FINALIZING ORBITALS ---
                    ---- DOING ONE FINAL ITERATION FOR PRINTING ----
   --- Forming Natural Orbitals
   --- Canonicalize Internal Space
   --- Canonicalize External Space

MACRO-ITERATION   8: 
   --- Inactive Energy E0 = 0.86974232 Eh
   --- All densities will be recomputed
CI-ITERATION   0: 
    -1.155088127   0.000000000000 (    0.00)
   CI-PROBLEM SOLVED
   DENSITIES MADE
   E(CAS)=    -1.155088127 Eh DE=     0.000000000
   --- Energy gap subspaces: Ext-Act = -3.032   Act-Int = 0.600
   N(occ)=  1.97089 0.01369 0.00653 0.00425 0.00419 0.00016 0.00016 0.00013
   ||g|| =      0.000174255 Max(G)=     0.000101019 Rot=40,0
--------------
CASSCF RESULTS
--------------

Final CASSCF energy       : -1.155088127 Eh     -31.4315 eV


---------------------------------------------
CAS-SCF STATES FOR BLOCK  1 MULT= 1 NROOTS= 1
---------------------------------------------

ROOT   0:  E=      -1.1550881268 Eh
      0.98545 [     0]: 20000000
      0.00685 [     8]: 02000000
      0.00326 [    15]: 00200000


--------------
DENSITY MATRIX
--------------

                  0          1          2          3          4          5    
      0       1.970895  -0.000000   0.000000   0.000000   0.000000  -0.000000
      1      -0.000000   0.013694   0.000000  -0.000000  -0.000000  -0.000000
      2       0.000000   0.000000   0.006528  -0.000000  -0.000000   0.000000
      3       0.000000  -0.000000  -0.000000   0.004248   0.000000  -0.000000
      4       0.000000  -0.000000  -0.000000   0.000000   0.004187  -0.000000
      5      -0.000000  -0.000000   0.000000  -0.000000  -0.000000   0.000161
      6       0.000000  -0.000000   0.000000   0.000000   0.000000   0.000000
      7      -0.000000   0.000000   0.000000   0.000000  -0.000000  -0.000000
                   6          7    
      0       0.000000  -0.000000
      1      -0.000000   0.000000
      2       0.000000   0.000000
      3       0.000000   0.000000
      4       0.000000  -0.000000
      5       0.000000  -0.000000
      6       0.000158  -0.000000
      7      -0.000000   0.000130
Trace of the electron density:  2.000000

-----------------
ENERGY COMPONENTS
-----------------

One electron energy          :     -2.668004361 Eh         -72.6001 eV
Two electron energy          :      0.643173911 Eh          17.5017 eV
Nuclear repulsion energy     :      0.869742324 Eh          23.6669 eV
                               ----------------
                                   -1.155088127

Kinetic energy               :      1.326121528 Eh          36.0856 eV
Potential energy             :     -2.481209654 Eh         -67.5171 eV
Virial ratio                 :     -1.871027355 
                               ----------------
                                   -1.155088127

Core energy                  :      0.869742324 Eh       23.6669 eV


----------------------------
LOEWDIN REDUCED ACTIVE MOs  
----------------------------

                      0         1         2         3         4         5   
                  -0.63086   0.78752   1.02574   1.13718   1.13731   3.28756
                   1.97089   0.01369   0.00653   0.00425   0.00419   0.00016
                  --------  --------  --------  --------  --------  --------
 0 H  s              47.0      13.4      33.4       0.0       0.0      22.3
 0 H  pz              0.0       0.0       0.0       0.0      46.2       0.0
 0 H  px              2.5      31.5      13.5       0.0       0.0      14.6
 0 H  py              0.0       0.0       0.0      46.3       0.0       0.0
 0 H  dx2y2           0.3       3.4       2.1       0.0       0.0       5.9
 1 H  s              47.0      13.4      33.4       0.0       0.0      22.3
 1 H  pz              0.0       0.0       0.0       0.0      46.2       0.0
 1 H  px              2.5      31.5      13.5       0.0       0.0      14.6
 1 H  py              0.0       0.0       0.0      46.3       0.0       0.0
 1 H  dx2y2           0.3       3.4       2.1       0.0       0.0       5.9

                      6         7         8         9        10        11   
                   3.10177   2.90162   0.25597   0.51354   0.81079   1.03322
                   0.00016   0.00013   0.00000   0.00000   0.00000   0.00000
                  --------  --------  --------  --------  --------  --------
 0 H  s               5.4       0.0      49.4      47.0       0.0      43.7
 0 H  pz              0.0      23.7       0.0       0.0       0.0       0.0
 0 H  px             31.1       0.0       0.3       1.1       0.0       3.1
[...]
----------------
GENERAL CI SETUP
----------------

Checking configurations                         ... done
Determining NSOMO,NDOMO and NVMO                ... done
Building up the tree                            ... done
Building N-1 electron tree                      ... done
Building RI configuration space                 ... done
Analyzing the RI configuration space            ... done
Determining NDOMO,NSOMO,NVMO for RI space       ... done
Determination of address arrays                 ... done
Looking for max. no of open shells              ... done
Setting up coupling coefficient container       ... Memory for address arrays  		      ... done
Make address arrays			      ... done
Memory for buffers 			      ... done
Setting up spin-function prototypes	      ... (MAXOPEN=2) 0 2 4 done
Trivial cases - DOMO's			      ... done (  0.0 MB)
Number of open shells			    ...  0
domo->virtual excitations			... done (  0.0 MB)
domo->somo excitations				... done (  0.0 MB)
somo->virtual excitations			... done (  0.0 MB)
somo->somo excitations				... done (  0.0 MB)
Number of open shells			    ...  2
domo->virtual excitations			... done (  0.0 MB)
domo->somo excitations				... done (  0.0 MB)
somo->virtual excitations			... done (  0.0 MB)
somo->somo excitations				... done (  0.0 MB)
Coupling container construction done
done
Now recording sub-block dimensions              ... done
Memory used for TGeneralCI arrays =     0.0 MB
  Original space  =     0.0
  RI       space  =     0.0
  Address arrays  =     0.0
  Coupling coeffs =     0.0
Multiplicity                          ...       1
# of electrons                        ...       2
# of orbitals                         ...       8
# of roots requested                  ...       1
Configuration space:
# of configurations                   ...      36
# of CSF's                            ...      36
# of rejected configurations          ...       0
Min. # of SOMOs                       ...       0
Max. # of SOMOs                       ...       2
Max. # of DOMOs                       ...       1
Max. # of VMOs                        ...       7
RI Configuration space:
# of configurations                   ...      36
# of CSF's                            ...      36
# of rejected configurations          ...       0
Min. # of SOMOs                       ...       0
Max. # of SOMOs                       ...       2
Max. # of DOMOs                       ...       1
Max. # of VMOs                        ...       7
(N-1) Electron Configuration space:
# of configurations                   ...       8
CSF dimensions:
      0 SOMOs give     1 CSFs
      2 SOMOs give     1 CSFs


SYSTEM-SPECIFIC SETTINGS:
Number of active electrons          ...    2
Number of active orbitals           ...    8
Total number of electrons           ...    2
Total number of orbitals            ...   60

Determined orbital ranges:
   Internal       0 -   -1 (   0 orbitals)
   Active         0 -    7 (   8 orbitals)
   External       8 -   59 (  52 orbitals)
Number of rotation parameters      ...    416

CI-STEP:
CI strategy                         ... General CI
Number of multiplicity blocks       ...    1
BLOCK  1 WEIGHT=   1.0000
  Multiplicity                      ...    1
  #(Configurations)                 ...   36
  #(CSFs)                           ...   36
  #(Roots)                          ...    1
    ROOT=0 WEIGHT=    1.000000

  PrintLevel                        ...    1
  N(GuessMat)                       ...       512
  MaxDim(CI)                        ...        10
  MaxIter(CI)                       ...        64
  Energy Tolerance CI               ...  2.50e-09
  Residual Tolerance CI             ...  2.50e-09
  Shift(CI)                         ...  1.00e-04

INTEGRAL-TRANSFORMATION-STEP:
  Algorithm                         ... EXACT

ORBITAL-IMPROVEMENT-STEP:
  Algorithm                         ... SuperCI(PT)
  Default Parametrization           ... CAYLEY
  Act-Act rotations                 ... depends on algorithm used

  Note: SuperCI(PT) will ignore FreezeIE, FreezeAct and FreezeGrad. In general Default settings are encouraged.
        In conjunction with ShiftUp, ShiftDn or GradScaling the performance of SuperCI(PT) is less optimal.  

  MaxRot                            ... 2.00e-01 
  Max. no of vectors (DIIS)         ... 15
  DThresh (cut-off) metric          ... 1.00e-06
  Switch step at gradient           ...  3.00e-02 
  Switch step at iteration          ...        50   
  Switch step to                    ... SuperCI(PT)    

SCF-SETTINGS:
  Incremental                       ... on
  RIJCOSX approximation             ... off
  RI-JK approximation               ... off
  AO integral handling              ... DIRECT
  Integral Neglect Thresh           ...  2.50e-11
  Primitive cutoff TCut             ...  2.50e-12
  Energy convergence tolerance      ...  2.50e-08
  Orbital gradient convergence      ...  2.50e-04
  Max. number of iterations         ...        75  


FINAL ORBITALS:
  Active   Orbitals                 ... natural 
  Internal Orbitals                 ... canonical 
  External Orbitals                 ... canonical 

------------------
CAS-SCF ITERATIONS
------------------


MACRO-ITERATION   1: 
   --- Inactive Energy E0 = 0.02652169 Eh
CI-ITERATION   0: 
    -0.999966586   0.000000000000 (    0.00)
   CI-PROBLEM SOLVED
   DENSITIES MADE

                 <<<<<<<<<<<<<<<<<<INITIAL CI STATE CHECK>>>>>>>>>>>>>>>>>>

BLOCK  1 MULT= 1 NROOTS= 1 
ROOT   0:  E=      -0.9999665856 Eh
      0.50003 [     0]: 20000000
      0.49997 [     8]: 02000000

                 <<<<<<<<<<<<<<<<<<INITIAL CI STATE CHECK>>>>>>>>>>>>>>>>>>

   E(CAS)=    -0.999966586 Eh DE=     0.000000000
   --- Energy gap subspaces: Ext-Act = -0.718   Act-Int = 0.600
   N(occ)=  1.00005 0.99995 0.00000 0.00000 0.00000 0.00000 0.00000 0.00000
   ||g|| =      0.000224892 Max(G)=    -0.000123179 Rot=11,0
                     ---- THE CAS-SCF GRADIENT HAS CONVERGED ----
                            --- FINALIZING ORBITALS ---
                    ---- DOING ONE FINAL ITERATION FOR PRINTING ----
   --- Forming Natural Orbitals
   --- Canonicalize Internal Space
   --- Canonicalize External Space

MACRO-ITERATION   2: 
   --- Inactive Energy E0 = 0.02652169 Eh
   --- All densities will be recomputed
CI-ITERATION   0: 
    -0.999966586   0.000000000000 (    0.00)
   CI-PROBLEM SOLVED
   DENSITIES MADE
   E(CAS)=    -0.999966586 Eh DE=     0.000000000
   --- Energy gap subspaces: Ext-Act = -0.718   Act-Int = 0.600
   N(occ)=  1.00005 0.99995 0.00000 0.00000 0.00000 0.00000 0.00000 0.00000
   ||g|| =      0.000224892 Max(G)=     0.000123179 Rot=11,0
--------------
CASSCF RESULTS
--------------

Final CASSCF energy       : -0.999966586 Eh     -27.2105 eV


---------------------------------------------
CAS-SCF STATES FOR BLOCK  1 MULT= 1 NROOTS= 1
---------------------------------------------

ROOT   0:  E=      -0.9999665856 Eh
      0.50003 [     0]: 20000000
      0.49997 [     8]: 02000000


--------------
DENSITY MATRIX
--------------

                  0          1          2          3          4          5    
      0       1.000050  -0.000000  -0.000000   0.000000  -0.000000  -0.000000
      1      -0.000000   0.999950  -0.000000  -0.000000   0.000000  -0.000000
      2      -0.000000  -0.000000   0.000000   0.000000  -0.000000  -0.000000
      3       0.000000  -0.000000   0.000000   0.000000  -0.000000  -0.000000
      4      -0.000000   0.000000  -0.000000  -0.000000   0.000000  -0.000000
      5      -0.000000  -0.000000  -0.000000  -0.000000  -0.000000   0.000000
      6       0.000000   0.000000   0.000000  -0.000000  -0.000000  -0.000000
      7       0.000000   0.000000  -0.000000  -0.000000   0.000000  -0.000000
                   6          7    
      0       0.000000   0.000000
      1       0.000000   0.000000
      2       0.000000  -0.000000
      3      -0.000000  -0.000000
      4      -0.000000   0.000000
      5      -0.000000  -0.000000
      6       0.000000  -0.000000
      7      -0.000000   0.000000
Trace of the electron density:  2.000000

-----------------
ENERGY COMPONENTS
-----------------

One electron energy          :     -1.053009929 Eh         -28.6539 eV
Two electron energy          :      0.026521657 Eh           0.7217 eV
Nuclear repulsion energy     :      0.026521686 Eh           0.7217 eV
                               ----------------
                                   -0.999966586

Kinetic energy               :      0.999971044 Eh          27.2106 eV
Potential energy             :     -1.999937630 Eh         -54.4211 eV
Virial ratio                 :     -1.999995541 
                               ----------------
                                   -0.999966586

Core energy                  :      0.026521686 Eh        0.7217 eV


----------------------------
LOEWDIN REDUCED ACTIVE MOs  
----------------------------

                      0         1         2         3         4         5   
                  -0.18748  -0.18747   0.59017   0.61278   0.61010   1.17462
                   1.00005   0.99995   0.00000   0.00000   0.00000   0.00000
                  --------  --------  --------  --------  --------  --------
 0 H  s              50.0      50.0       0.3       0.0       0.0       0.0
 0 H  pz              0.0       0.0       0.0      49.0       0.0      46.6
 0 H  px              0.0       0.0      49.2       0.0       0.0       0.0
 0 H  py              0.0       0.0       0.0       0.0      49.0       0.0
 1 H  s              50.0      50.0       0.3       0.0       0.0       0.0
 1 H  pz              0.0       0.0       0.0      49.0       0.0      46.6
 1 H  px              0.0       0.0      49.2       0.0       0.0       0.0
 1 H  py              0.0       0.0       0.0       0.0      49.0       0.0

                      6         7         8         9        10        11   
                   1.02834   0.88307   0.45664   0.57015   0.68745   0.76270
                   0.00000   0.00000   0.00000   0.00000   0.00000   0.00000
                  --------  --------  --------  --------  --------  --------
 0 H  s              46.2      45.4      30.5       0.0      22.6      49.1
 0 H  px              3.7       2.3      19.5       0.0      27.4       0.6
 0 H  py              0.0       0.0       0.0      50.0       0.0       0.0
 1 H  s              46.2      45.4      30.5       0.0      22.6      49.1
 1 H  px              3.7       2.3      19.5       0.0      27.4       0.6
 1 H  py              0.0       0.0       0.0      50.0       0.0       0.0


-------------------------------------------------------------
 Forming the transition density       ... done in 0.002566 sec
-------------------------------------------------------------



==========================================
CASSCF UV, CD spectra and dipole moments
==========================================
-------------------
ABSORPTION SPECTRUM
-------------------

Center of mass           = ( 18.8525,  0.0000,  0.0000)
Nuclear contribution to the dipole moment =     0.000000,    0.000000,    0.000000 au

Calculating the dipole integrals                  ... done
Transforming integrals                            ... done
Calculating the Linear Momentum integrals         ... done
Transforming integrals                            ... done
Calculating the Angular Momentum integrals        ... done
Transforming integrals                            ... done

Ground state mult:    1
Ground state block:   0
Ground state root:    0


------------------------------------------------------------------------------
                                 DIPOLE MOMENTS
------------------------------------------------------------------------------
  Root  Block           TX        TY        TZ           |T|
                      (Debye)   (Debye)   (Debye)      (Debye)
------------------------------------------------------------------------------
    0    0            0.00000   0.00000  -0.00000      0.00000

--------------
CASSCF TIMINGS
--------------

Total time                       ...        0.4 sec
Sum of individual times          ...        0.3 sec ( 68.5%)

Calculation of AO operators
   F(Core) operator              ...        0.0 sec (  1.1%)
   G(Act) operator               ...        0.0 sec (  8.6%)
   J(AO) operators               ...        0.0 sec (  0.0%)
Calculation of MO transformed quantities
   J(MO) operators               ...        0.2 sec ( 44.5%)
   (pq|rs) integrals             ...        0.0 sec (  0.0%)
   AO->MO one electron integrals ...        0.0 sec (  0.1%)
Configuration interaction steps
   CI-setup phase                ...        0.0 sec (  0.3%)
   CI-solution phase             ...        0.0 sec ( 10.4%)
   Generation of densities       ...        0.0 sec (  0.3%)
Orbital improvement steps
   Orbital gradient              ...        0.0 sec (  1.1%)
Properties                       ...        0.0 sec (  2.0%)
   SOC integral calculation      ...        0.0 sec (  0.0%)
   SSC RMEs (incl. integrals)    ...        0.0 sec (  0.0%)
   SOC RMEs                      ...        0.0 sec (  0.0%)

-------------------------   --------------------
FINAL SINGLE POINT ENERGY        -0.999966585575
-------------------------   --------------------

Storing actual gbw-file in H2_0_1_CASSCF-2-8_def2-qzvpp.sp.020.gbw ... done

                            ***************************************
                            *     ORCA property calculations      *
                            ***************************************

                                    ---------------------
                                    Active property flags
                                    ---------------------
   (+) Dipole Moment


------------------------------------------------------------------------------
                       ORCA ELECTRIC PROPERTIES CALCULATION
------------------------------------------------------------------------------

Dipole Moment Calculation                       ... on
Quadrupole Moment Calculation                   ... off
Polarizability Calculation                      ... off
GBWName                                         ... H2_0_1_CASSCF-2-8_def2-qzvpp.sp.gbw
Electron density file                           ... H2_0_1_CASSCF-2-8_def2-qzvpp.sp.scfp
The origin for moment calculation is the CENTER OF MASS  = (18.852497,  0.000000  0.000000)

-------------
DIPOLE MOMENT
-------------
                                X             Y             Z
Electronic contribution:      0.00000       0.00000      -0.00000
Nuclear contribution   :     -0.00000       0.00000       0.00000
                        -----------------------------------------
Total Dipole Moment    :      0.00000       0.00000      -0.00000
                        -----------------------------------------
Magnitude (a.u.)       :      0.00000
Magnitude (Debye)      :      0.00000



--------------------
Rotational spectrum 
--------------------
 
Rotational constants in cm-1:     0.000000     0.084017     0.084017 
Rotational constants in MHz :     0.000000  2518.761623  2518.761623 

 Dipole components along the rotational axes: 
x,y,z [a.u.] :     0.000000     0.000000    -0.000000 
x,y,z [Debye]:     0.000000     0.000000    -0.000000 

 
                              **** TRAJECTORY DONE ***

                         SUMMARY OF THE CALCULATED SURFACE

------------------
TRAJECTORY RESULTS
------------------

Column   1: RHH

The Calculated Surface using the 'Actual Energy'
   0.50118723  -1.10089811
   0.60842987  -1.15508813
   0.73861998  -1.17130220
   0.89666781  -1.16003616
   1.08853427  -1.13063133
   1.32145577  -1.09219186
   1.60421716  -1.05387330
   1.94748304  -1.02425383
   2.36419999  -1.00783261
   2.87008485  -1.00173523
   3.48421754  -1.00023896
   4.22976062  -0.99999726
   5.13483291  -0.99997026
   6.23357002  -0.99996734
   7.56741181  -0.99996679
   9.18666532  -0.99996665
  11.15240214  -0.99996660
  13.53876180  -0.99996659
  16.43574799  -0.99996659
  19.95262315  -0.99996659

                        *******************************
                        *   FIT OF THE ACT-ENERGY PES *
                        *******************************
-------------------------------
POTENTIAL ENERGY SURFACE =   0
-------------------------------

Minimum found after 22 iterations
Equilibrium distance and its energy from the interpolated PES:
  Re      =   0.72674 Angstroem  (  1.37335 Bohr)
  E(Re)   =    -1.171379 Eh 
  dE/dR   = -1.870e-09 (-1.162e-01 CHEB)
  d2E/dR2 =    0.337331 (   0.806309 CHEB) (  -0.012813 NUM)
  d3E/dR3 =   -4.219273 (  -3.060605 CHEB)

Spectroscopic constants:
  we =    4222.3 cm**-1 (based on SPLINE)
  we =    6527.9 cm**-1 (based on CHEB)
  we =      -nan cm**-1 (based on NUM)

Performing Morse fit ...
Morse-Fit Results:
 Te(adiabatic)   =    -361.2 cm**-1         = -0.045 eV
 d2E/dR**2 (Morse)=      0.407636007 
 d3E/dR**3 (Morse)=     -1.324224728 
 d4E/dR**4 (Morse)=      3.345849316 
 E0               =     -1.173024926 Eh  RMS=1.51e-06
 Re               =   0.74479 Angstroem      =  1.40745 Bohr RMS=8.40e-06)
 De(Morse)        =   4.72996 eV             =  38149.7 cm**-1 RMS=1.35e-06
 D0(Morse)        =   4.44222 eV
 beta             =   1.08285 au          RMS=1.51e-05
 we               =   4641.5 cm**-1
 wexe             =    141.1 cm**-1
 Displacement   =    0.0180 Angstroem      =  0.03410 Bohr

The Calculated Surface using the SCF energy
   0.50118723  -1.10089811
   0.60842987  -1.15508813
   0.73861998  -1.17130220
   0.89666781  -1.16003616
   1.08853427  -1.13063133
   1.32145577  -1.09219186
   1.60421716  -1.05387330
   1.94748304  -1.02425383
   2.36419999  -1.00783261
   2.87008485  -1.00173523
   3.48421754  -1.00023896
   4.22976062  -0.99999726
   5.13483291  -0.99997026
   6.23357002  -0.99996734
   7.56741181  -0.99996679
   9.18666532  -0.99996665
  11.15240214  -0.99996660
  13.53876180  -0.99996659
  16.43574799  -0.99996659
  19.95262315  -0.99996659

                        *******************************
                        *       FIT OF THE SCF PES    *
                        *******************************
-------------------------------
POTENTIAL ENERGY SURFACE =   0
-------------------------------

Minimum found after 22 iterations
Equilibrium distance and its energy from the interpolated PES:
  Re      =   0.72674 Angstroem  (  1.37335 Bohr)
  E(Re)   =    -1.171379 Eh 
  dE/dR   = -1.870e-09 (-1.162e-01 CHEB)
  d2E/dR2 =    0.337331 (   0.806309 CHEB) (  -0.012813 NUM)
  d3E/dR3 =   -4.219273 (  -3.060605 CHEB)

Spectroscopic constants:
  we =    4222.3 cm**-1 (based on SPLINE)
  we =    6527.9 cm**-1 (based on CHEB)
  we =      -nan cm**-1 (based on NUM)

Performing Morse fit ...
Morse-Fit Results:
 Te(adiabatic)   =    -361.2 cm**-1         = -0.045 eV
 d2E/dR**2 (Morse)=      0.407636007 
 d3E/dR**3 (Morse)=     -1.324224728 
 d4E/dR**4 (Morse)=      3.345849316 
 E0               =     -1.173024926 Eh  RMS=1.51e-06
 Re               =   0.74479 Angstroem      =  1.40745 Bohr RMS=8.40e-06)
 De(Morse)        =   4.72996 eV             =  38149.7 cm**-1 RMS=1.35e-06
 D0(Morse)        =   4.44222 eV
 beta             =   1.08285 au          RMS=1.51e-05
 we               =   4641.5 cm**-1
 wexe             =    141.1 cm**-1
 Displacement   =    0.0180 Angstroem      =  0.03410 Bohr


Timings for individual modules:

Sum of individual times         ...       97.833 sec (=   1.631 min)
GTO integral calculation        ...        4.860 sec (=   0.081 min)   5.0 %
SCF iterations                  ...        0.896 sec (=   0.015 min)   0.9 %
CASSCF iterations               ...       92.076 sec (=   1.535 min)  94.1 %
                             ****ORCA TERMINATED NORMALLY****
TOTAL RUN TIME: 0 days 0 hours 1 minutes 40 seconds 35 msec
