
                                 *****************
                                 * O   R   C   A *
                                 *****************

           --- An Ab Initio, DFT and Semiempirical electronic structure package ---

                  #######################################################
                  #                        -***-                        #
                  #          Department of theory and spectroscopy      #
                  #               Directorship: Frank Neese             #
                  #        Max Planck Institute fuer Kohlenforschung    #
                  #                Kaiser Wilhelm Platz 1               #
                  #                 D-45470 Muelheim/Ruhr               #
                  #                      Germany                        #
                  #                                                     #
                  #                  All rights reserved                #
                  #                        -***-                        #
                  #######################################################


                         Program Version 4.2.0 -  RELEASE  -


 With contributions from (in alphabetic order):
   Daniel Aravena         : Magnetic Suceptibility
   Michael Atanasov       : Ab Initio Ligand Field Theory (pilot matlab implementation)
   Alexander A. Auer      : GIAO ZORA, VPT2
   Ute Becker             : Parallelization
   Giovanni Bistoni       : ED, misc. LED, open-shell LED, HFLED
   Martin Brehm           : Molecular dynamics
   Dmytro Bykov           : SCF Hessian
   Vijay G. Chilkuri      : MRCI spin determinant printing, contributions to CSF-ICE
   Dipayan Datta          : RHF DLPNO-CCSD density
   Achintya Kumar Dutta   : EOM-CC, STEOM-CC
   Dmitry Ganyushin       : Spin-Orbit,Spin-Spin,Magnetic field MRCI
   Miquel Garcia          : C-PCM Hessian, Gaussian charge scheme
   Yang Guo               : DLPNO-NEVPT2, CIM, IAO-localization
   Andreas Hansen         : Spin unrestricted coupled pair/coupled cluster methods
   Benjamin Helmich-Paris : CASSCF linear response (MC-RPA)
   Lee Huntington         : MR-EOM, pCC
   Robert Izsak           : Overlap fitted RIJCOSX, COSX-SCS-MP3, EOM
   Christian Kollmar      : KDIIS, OOCD, Brueckner-CCSD(T), CCSD density
   Simone Kossmann        : Meta GGA functionals, TD-DFT gradient, OOMP2, MP2 Hessian
   Martin Krupicka        : AUTO-CI
   Lucas Lang             : DCDCAS
   Dagmar Lenk            : GEPOL surface, SMD
   Dimitrios Liakos       : Extrapolation schemes; Compound Job, initial MDCI parallelization
   Dimitrios Manganas     : Further ROCIS development; embedding schemes
   Dimitrios Pantazis     : SARC Basis sets
   Taras Petrenko         : DFT Hessian,TD-DFT gradient, ASA, ECA, R-Raman, ABS, FL, XAS/XES, NRVS
   Peter Pinski           : DLPNO-MP2, DLPNO-MP2 Gradient
   Christoph Reimann      : Effective Core Potentials
   Marius Retegan         : Local ZFS, SOC
   Christoph Riplinger    : Optimizer, TS searches, QM/MM, DLPNO-CCSD(T), (RO)-DLPNO pert. Triples
   Tobias Risthaus        : Range-separated hybrids, TD-DFT gradient, RPA, STAB
   Michael Roemelt        : Original ROCIS implementation
   Masaaki Saitow         : Open-shell DLPNO-CCSD energy and density
   Barbara Sandhoefer     : DKH picture change effects
   Avijit Sen             : IP-ROCIS
   Kantharuban Sivalingam : CASSCF convergence, NEVPT2, FIC-MRCI
   Bernardo de Souza      : ESD, SOC TD-DFT
   Georgi Stoychev        : AutoAux, RI-MP2 NMR
   Willem Van den Heuvel  : Paramagnetic NMR
   Boris Wezisla          : Elementary symmetry handling
   Frank Wennmohs         : Technical directorship


 We gratefully acknowledge several colleagues who have allowed us to
 interface, adapt or use parts of their codes:
   Stefan Grimme, W. Hujo, H. Kruse,             : VdW corrections, initial TS optimization,
                  C. Bannwarth                     DFT functionals, gCP, sTDA/sTD-DF
   Ed Valeev, F. Pavosevic, A. Kumar             : LibInt (2-el integral package), F12 methods
   Garnet Chan, S. Sharma, J. Yang, R. Olivares  : DMRG
   Ulf Ekstrom                                   : XCFun DFT Library
   Mihaly Kallay                                 : mrcc  (arbitrary order and MRCC methods)
   Andreas Klamt, Michael Diedenhofen            : otool_cosmo (COSMO solvation model)
   Jiri Pittner, Ondrej Demel                    : Mk-CCSD
   Frank Weinhold                                : gennbo (NPA and NBO analysis)
   Christopher J. Cramer and Donald G. Truhlar   : smd solvation model
   Lars Goerigk                                  : TD-DFT with DH, B97 family of functionals
   V. Asgeirsson, H. Jonsson                     : NEB implementation
   FAccTs GmbH                                   : IRC, NEB, NEB-TS, Multilevel, MM, QM/MM, CI optimization
   S Lehtola, MJT Oliveira, MAL Marques          : LibXC Library


 Your calculation uses the libint2 library for the computation of 2-el integrals
 For citations please refer to: http://libint.valeyev.net

 Your ORCA version has been built with support for libXC version: 4.2.3
 For citations please refer to: https://tddft.org/programs/libxc/

 This ORCA versions uses:
   CBLAS   interface :  Fast vector & matrix operations
   LAPACKE interface :  Fast linear algebra routines
   SCALAPACK package :  Parallel linear algebra routines


----- Orbital basis set information -----
Your calculation utilizes the basis: def2-QZVPP
   F. Weigend and R. Ahlrichs, Phys. Chem. Chem. Phys. 7, 3297 (2005).

================================================================================
                                        WARNINGS
                       Please study these warnings very carefully!
================================================================================


WARNING: MDCI localization with Augmented Hessian Foster-Boys
  ===> : Switching off randomization!

WARNING: Post HF methods need fully converged wavefunctions
  ===> : Setting SCFConvForced true
         You can overwrite this default with %scf ConvForced false 


INFO   : the flag for use of LIBINT has been found!

================================================================================
                                       INPUT FILE
================================================================================
NAME = H2_0_1_RCCSD-T_def2-qzvpp.sp.inp
|  1> !rhf ccsd(t) def2-qzvpp tightscf 
|  2> !normalprint
|  3> 
|  4> %paras
|  5> #  rHH [19.952623149688797 16.43574799372698 13.538761800225439 11.152402139117903 9.1866653175426 7.567411809920191 6.233570019315557 5.134832907437553 4.229760619613384 3.4842175435383975 2.870084854071569 2.3641999865500756 1.9474830399087562 1.6042171611153242 1.32145576997553 1.088534267260644 0.8966678097917788 0.7386199822079362 0.6084298690766428 0.5011872336272722]
|  6>   rHH [0.5011872336272722 0.6084298690766428 0.7386199822079362 0.8966678097917788 1.088534267260644 1.32145576997553 1.6042171611153242 1.9474830399087562 2.3641999865500756 2.870084854071569 3.4842175435383975 4.229760619613384 5.134832907437553 6.233570019315557 7.567411809920191 9.1866653175426 11.152402139117903 13.538761800225439 16.43574799372698 19.952623149688797]
|  7> end
|  8> 
|  9> %scf
| 10>   maxiter 500
| 11> end
| 12> 
| 13> *int 0 1
| 14> H 0 0 0 0 0 0
| 15> H 1 0 0 {rHH} 0 0
| 16> *
| 17> 
| 18>                          ****END OF INPUT****
================================================================================

                       ******************************
                       * Parameter Scan Calculation *
                       ******************************

Trajectory settings:
    -> SCF surface will be mapped
    -> MDCI surface will be mapped

There are 1 parameter(s) to be scanned
           RHH: user defined at 20 points
There will be   20 energy evaluations


         *************************************************************
                                TRAJECTORY STEP   1
                RHH  :   0.50118723
         *************************************************************
---------------------------------
CARTESIAN COORDINATES (ANGSTROEM)
---------------------------------
  H      0.000000    0.000000    0.000000
  H      0.501187    0.000000    0.000000

----------------------------
CARTESIAN COORDINATES (A.U.)
----------------------------
  NO LB      ZA    FRAG     MASS         X           Y           Z
   0 H     1.0000    0     1.008    0.000000    0.000000    0.000000
   1 H     1.0000    0     1.008    0.947107    0.000000    0.000000

--------------------------------
INTERNAL COORDINATES (ANGSTROEM)
--------------------------------
 H      0   0   0     0.000000000000     0.00000000     0.00000000
 H      1   0   0     0.501187233627     0.00000000     0.00000000

---------------------------
INTERNAL COORDINATES (A.U.)
---------------------------
 H      0   0   0     0.000000000000     0.00000000     0.00000000
 H      1   0   0     0.947106613373     0.00000000     0.00000000

---------------------
BASIS SET INFORMATION
---------------------
There are 1 groups of distinct atoms

 Group   1 Type H   : 7s3p2d1f contracted to 4s3p2d1f pattern {4111/111/11/1}

Atom   0H    basis set group =>   1
Atom   1H    basis set group =>   1
------------------------------------------------------------------------------
                           ORCA GTO INTEGRAL CALCULATION
------------------------------------------------------------------------------

                         BASIS SET STATISTICS AND STARTUP INFO

 # of primitive gaussian shells          ...   26
 # of primitive gaussian functions       ...   66
 # of contracted shells                  ...   20
 # of contracted basis functions         ...   60
 Highest angular momentum                ...    3
 Maximum contraction depth               ...    4
 Integral package used                   ... LIBINT
 Integral threshhold            Thresh   ...  2.500e-11
 Primitive cut-off              TCut     ...  2.500e-12


------------------------------ INTEGRAL EVALUATION ----------------------------


 * One electron integrals 
 Pre-screening matrix                    ... done
 Shell pair data                         ... done (   0.000 sec)

-------------------------------------------------------------------------------
                                 ORCA SCF
-------------------------------------------------------------------------------

------------
SCF SETTINGS
------------
Hamiltonian:
 Ab initio Hamiltonian  Method          .... Hartree-Fock(GTOs)


General Settings:
 Integral files         IntName         .... H2_0_1_RCCSD-T_def2-qzvpp.sp
 Hartree-Fock type      HFTyp           .... RHF
 Total Charge           Charge          ....    0
 Multiplicity           Mult            ....    1
 Number of Electrons    NEL             ....    2
 Basis Dimension        Dim             ....   60
 Nuclear Repulsion      ENuc            ....      1.0558473417 Eh

Convergence Acceleration:
 DIIS                   CNVDIIS         .... on
   Start iteration      DIISMaxIt       ....    12
   Startup error        DIISStart       ....  0.200000
   # of expansion vecs  DIISMaxEq       ....     5
   Bias factor          DIISBfac        ....   1.050
   Max. coefficient     DIISMaxC        ....  10.000
 Newton-Raphson         CNVNR           .... off
 SOSCF                  CNVSOSCF        .... on
   Start iteration      SOSCFMaxIt      ....   150
   Startup grad/error   SOSCFStart      ....  0.003300
 Level Shifting         CNVShift        .... on
   Level shift para.    LevelShift      ....    0.2500
   Turn off err/grad.   ShiftErr        ....    0.0010
 Zerner damping         CNVZerner       .... off
 Static damping         CNVDamp         .... on
   Fraction old density DampFac         ....    0.7000
   Max. Damping (<1)    DampMax         ....    0.9800
   Min. Damping (>=0)   DampMin         ....    0.0000
   Turn off err/grad.   DampErr         ....    0.1000
 Fernandez-Rico         CNVRico         .... off

SCF Procedure:
 Maximum # iterations   MaxIter         ....   500
 SCF integral mode      SCFMode         .... Direct
   Integral package                     .... LIBINT
 Reset frequency        DirectResetFreq ....    20
 Integral Threshold     Thresh          ....  2.500e-11 Eh
 Primitive CutOff       TCut            ....  2.500e-12 Eh

Convergence Tolerance:
 Convergence Check Mode ConvCheckMode   .... Total+1el-Energy
 Convergence forced     ConvForced      .... 1
 Energy Change          TolE            ....  1.000e-08 Eh
 1-El. energy change                    ....  1.000e-05 Eh
 Orbital Gradient       TolG            ....  1.000e-05
 Orbital Rotation angle TolX            ....  1.000e-05
 DIIS Error             TolErr          ....  5.000e-07


Diagonalization of the overlap matrix:
Smallest eigenvalue                        ... 5.708e-05
Time for diagonalization                   ...    0.099 sec
Threshold for overlap eigenvalues          ... 1.000e-08
Number of eigenvalues below threshold      ... 0
Time for construction of square roots      ...    0.003 sec
Total time needed                          ...    0.103 sec

-------------------
DFT GRID GENERATION
-------------------

General Integration Accuracy     IntAcc      ...  4.340
Radial Grid Type                 RadialGrid  ... Gauss-Chebyshev
Angular Grid (max. acc.)         AngularGrid ... Lebedev-110
Angular grid pruning method      GridPruning ... 3 (G Style)
Weight generation scheme         WeightScheme... Becke
Basis function cutoff            BFCut       ...    1.0000e-11
Integration weight cutoff        WCut        ...    1.0000e-14
Grids for H and He will be reduced by one unit

# of grid points (after initial pruning)     ...   1588 (   0.0 sec)
# of grid points (after weights+screening)   ...   1560 (   0.0 sec)
nearest neighbour list constructed           ...    0.0 sec
Grid point re-assignment to atoms done       ...    0.0 sec
Grid point division into batches done        ...    0.0 sec
Reduced shell lists constructed in    0.0 sec

Total number of grid points                  ...     1560
Total number of batches                      ...       26
Average number of points per batch           ...       60
Average number of grid points per atom       ...      780
Average number of shells per batch           ...    19.15 (95.74%)
Average number of basis functions per batch  ...    57.44 (95.74%)
Average number of large shells per batch     ...    18.78 (98.07%)
Average number of large basis fcns per batch ...    56.19 (97.81%)
Maximum spatial batch extension              ...  15.26, 21.59, 21.59 au
Average spatial batch extension              ...   4.46,  7.66,  7.77 au

Time for grid setup =    0.007 sec

------------------------------
INITIAL GUESS: MODEL POTENTIAL
------------------------------
Loading Hartree-Fock densities                     ... done
Calculating cut-offs                               ... done
Setting up the integral package                    ... done
Initializing the effective Hamiltonian             ... done
Starting the Coulomb interaction                   ... done (   0.0 sec)
Reading the grid                                   ... done
Mapping shells                                     ... done
Starting the XC term evaluation                    ... done (   0.0 sec)
Transforming the Hamiltonian                       ... done (   0.0 sec)
Diagonalizing the Hamiltonian                      ... done (   0.0 sec)
Back transforming the eigenvectors                 ... done (   0.0 sec)
Now organizing SCF variables                       ... done
                      ------------------
                      INITIAL GUESS DONE (   0.1 sec)
                      ------------------
--------------
SCF ITERATIONS
--------------
               ***  Starting incremental Fock matrix formation  ***

                         ----------------------------
                         !        ITERATION     0   !
                         ----------------------------
   Total Energy        :      -1.058961028110 Eh
   Energy Change       :      -1.058961028110 Eh
   MAX-DP              :       0.003521508623
   RMS-DP              :       0.000162572734
   Actual Damping      :       0.7000
   Actual Level Shift  :       0.2500 Eh


                         ----------------------------
                         !        ITERATION     1   !
                         ----------------------------
   Total Energy        :      -1.060748494110 Eh
   Energy Change       :      -0.001787466000 Eh
   MAX-DP              :       0.002989384965
   RMS-DP              :       0.000143609178
   Actual Damping      :       0.7000
   Actual Level Shift  :       0.2500 Eh

                               ***Turning on DIIS***

                         ----------------------------
                         !        ITERATION     2   !
                         ----------------------------
   Total Energy        :      -1.062121978429 Eh
   Energy Change       :      -0.001373484319 Eh
   MAX-DP              :       0.007335048852
   RMS-DP              :       0.000366307320
   Actual Damping      :       0.0000
   Actual Level Shift  :       0.2500 Eh
   DIIS-Error          :       0.060701659945


                         ----------------------------
                         !        ITERATION     3   !
                         ----------------------------
   Total Energy        :      -1.066923640564 Eh
   Energy Change       :      -0.004801662134 Eh
   MAX-DP              :       0.001519500400
   RMS-DP              :       0.000064993295
   Actual Damping      :       0.0000
   Actual Level Shift  :       0.2500 Eh
   DIIS-Error          :       0.007460954159
   DIIS coefficients:
     -0.11435   1.11435

                      *** Initiating the SOSCF procedure ***
                           *** Shutting down DIIS ***
                      *** Re-Reading the Fockian *** 
                      *** Removing any level shift *** 

                         ----------------------------
                         !        ITERATION     4   !
                         ----------------------------
   Total Energy        :      -1.066045436905 Eh
   Energy Change       :       0.000878203658 Eh
   MAX-DP              :       0.000405281304
   RMS-DP              :       0.000020381815
   Orbital gradient    :       0.001166828048
   Orbital Rotation    :       0.001166828048
   Actual Damping      :       0.0000

               *** Restarting incremental Fock matrix formation ***

                         ----------------------------
                         !        ITERATION     5   !
                         ----------------------------
   Total Energy        :      -1.065721578485 Eh
   Energy Change       :       0.000323858420 Eh
   MAX-DP              :       0.000176345912
   RMS-DP              :       0.000009763878
   Orbital gradient    :       0.000343077204
   Orbital Rotation    :       0.000398629902
   Actual Damping      :       0.0000


                         ----------------------------
                         !        ITERATION     6   !
                         ----------------------------
   Total Energy        :      -1.065721929715 Eh
   Energy Change       :      -0.000000351230 Eh
   MAX-DP              :       0.000068112478
   RMS-DP              :       0.000003443856
   Orbital gradient    :       0.000082152751
   Orbital Rotation    :       0.000126095503
   Actual Damping      :       0.0000


                         ----------------------------
                         !        ITERATION     7   !
                         ----------------------------
   Total Energy        :      -1.065721951406 Eh
   Energy Change       :      -0.000000021691 Eh
   MAX-DP              :       0.000002370346
   RMS-DP              :       0.000000090343
   Orbital gradient    :       0.000002531257
   Orbital Rotation    :       0.000001520877
   Actual Damping      :       0.0000

                 **** Energy Check signals convergence ****
              ***Rediagonalizing the Fockian in SOSCF/NRSCF***

               *****************************************************
               *                     SUCCESS                       *
               *           SCF CONVERGED AFTER   8 CYCLES          *
               *****************************************************


----------------
TOTAL SCF ENERGY
----------------

Total Energy       :           -1.06572195 Eh             -28.99977 eV

Components:
Nuclear Repulsion  :            1.05584734 Eh              28.73107 eV
Electronic Energy  :           -2.12156929 Eh             -57.73084 eV
One Electron Energy:           -2.87986765 Eh             -78.36518 eV
Two Electron Energy:            0.75829835 Eh              20.63435 eV

Virial components:
Potential Energy   :           -2.51967726 Eh             -68.56390 eV
Kinetic Energy     :            1.45395531 Eh              39.56414 eV
Virial Ratio       :            1.73298123


---------------
SCF CONVERGENCE
---------------

  Last Energy change         ...   -1.3556e-11  Tolerance :   1.0000e-08
  Last MAX-Density change    ...    4.3002e-07  Tolerance :   1.0000e-07
  Last RMS-Density change    ...    1.6625e-08  Tolerance :   5.0000e-09
  Last Orbital Gradient      ...    3.7734e-07  Tolerance :   1.0000e-05
  Last Orbital Rotation      ...    2.6518e-07  Tolerance :   1.0000e-05

             **** THE GBW FILE WAS UPDATED (H2_0_1_RCCSD-T_def2-qzvpp.sp.gbw) ****
             **** DENSITY FILE WAS UPDATED (H2_0_1_RCCSD-T_def2-qzvpp.sp.scfp) ****
             **** ENERGY FILE WAS UPDATED (H2_0_1_RCCSD-T_def2-qzvpp.sp.en.tmp) ****
             **** THE GBW FILE WAS UPDATED (H2_0_1_RCCSD-T_def2-qzvpp.sp.gbw) ****
             **** DENSITY FILE WAS UPDATED (H2_0_1_RCCSD-T_def2-qzvpp.sp.scfp) ****
----------------
ORBITAL ENERGIES
----------------

  NO   OCC          E(Eh)            E(eV) 
   0   2.0000      -0.681636       -18.5482 
   1   0.0000       0.142350         3.8735 
   2   0.0000       0.179146         4.8748 
   3   0.0000       0.461183        12.5494 
   4   0.0000       0.533111        14.5067 
   5   0.0000       0.533111        14.5067 
   6   0.0000       0.799761        21.7626 
   7   0.0000       0.799761        21.7626 
   8   0.0000       0.821281        22.3482 
   9   0.0000       0.973007        26.4769 
  10   0.0000       1.036442        28.2030 
  11   0.0000       1.949337        53.0442 
  12   0.0000       2.000278        54.4303 
  13   0.0000       2.000278        54.4303 
  14   0.0000       2.195751        59.7494 
  15   0.0000       2.195751        59.7494 
  16   0.0000       2.221047        60.4378 
  17   0.0000       2.221047        60.4378 
  18   0.0000       2.512677        68.3734 
  19   0.0000       2.558345        69.6161 
  20   0.0000       2.558345        69.6161 
  21   0.0000       2.622303        71.3565 
  22   0.0000       2.622303        71.3565 
  23   0.0000       2.756824        75.0170 
  24   0.0000       3.083641        83.9101 
  25   0.0000       3.944141       107.3255 
  26   0.0000       4.202820       114.3645 
  27   0.0000       4.202820       114.3645 
  28   0.0000       5.776332       157.1820 
  29   0.0000       5.776332       157.1820 
  30   0.0000       6.070439       165.1850 
  31   0.0000       6.820227       185.5878 
  32   0.0000       6.874816       187.0732 
  33   0.0000       6.874816       187.0732 
  34   0.0000       6.902632       187.8302 
  35   0.0000       6.902632       187.8302 
  36   0.0000       7.072038       192.4399 
  37   0.0000       7.072038       192.4399 
  38   0.0000       7.110324       193.4817 
  39   0.0000       7.110324       193.4817 
  40   0.0000       7.119103       193.7206 
  41   0.0000       7.119103       193.7206 
  42   0.0000       7.286082       198.2644 
  43   0.0000       7.286082       198.2644 
  44   0.0000       7.671484       208.7517 
  45   0.0000       7.763104       211.2448 
  46   0.0000       7.894701       214.8257 
  47   0.0000       7.894701       214.8257 
  48   0.0000       8.758024       238.3180 
  49   0.0000       9.060343       246.5445 
  50   0.0000       9.060343       246.5445 
  51   0.0000      10.664917       290.2071 
  52   0.0000      10.664917       290.2071 
  53   0.0000      11.371428       309.4323 
  54   0.0000      11.371428       309.4323 
  55   0.0000      11.991646       326.3093 
  56   0.0000      15.140732       412.0003 
  57   0.0000      15.140732       412.0003 
  58   0.0000      15.970347       434.5752 
  59   0.0000      18.589712       505.8518 

                    ********************************
                    * MULLIKEN POPULATION ANALYSIS *
                    ********************************

-----------------------
MULLIKEN ATOMIC CHARGES
-----------------------
   0 H :    0.000000
   1 H :   -0.000000
Sum of atomic charges:   -0.0000000

--------------------------------
MULLIKEN REDUCED ORBITAL CHARGES
--------------------------------
  0 H s       :     0.989470  s :     0.989470
      pz      :    -0.000000  p :     0.010905
      px      :     0.010905
      py      :    -0.000000
      dz2     :    -0.000086  d :    -0.000342
      dxz     :     0.000000
      dyz     :    -0.000000
      dx2y2   :    -0.000257
      dxy     :     0.000000
      f0      :    -0.000000  f :    -0.000033
      f+1     :    -0.000013
      f-1     :    -0.000000
      f+2     :    -0.000000
      f-2     :     0.000000
      f+3     :    -0.000021
      f-3     :    -0.000000
  1 H s       :     0.989470  s :     0.989470
      pz      :     0.000000  p :     0.010905
      px      :     0.010905
      py      :     0.000000
      dz2     :    -0.000086  d :    -0.000342
      dxz     :     0.000000
      dyz     :     0.000000
      dx2y2   :    -0.000257
      dxy     :     0.000000
      f0      :    -0.000000  f :    -0.000033
      f+1     :    -0.000013
      f-1     :    -0.000000
      f+2     :    -0.000000
      f-2     :    -0.000000
      f+3     :    -0.000021
      f-3     :    -0.000000

------------------------
MULLIKEN OVERLAP CHARGES
------------------------
B(  0-H ,  1-H ) :   0.9084 


                     *******************************
                     * LOEWDIN POPULATION ANALYSIS *
                     *******************************

----------------------
LOEWDIN ATOMIC CHARGES
----------------------
   0 H :   -0.000000
   1 H :    0.000000

-------------------------------
LOEWDIN REDUCED ORBITAL CHARGES
-------------------------------
  0 H s       :     0.944618  s :     0.944618
      pz      :     0.000000  p :     0.048808
      px      :     0.048808
      py      :     0.000000
      dz2     :     0.001498  d :     0.005992
      dxz     :     0.000000
      dyz     :     0.000000
      dx2y2   :     0.004494
      dxy     :     0.000000
      f0      :     0.000000  f :     0.000582
      f+1     :     0.000218
      f-1     :     0.000000
      f+2     :     0.000000
      f-2     :     0.000000
      f+3     :     0.000364
      f-3     :     0.000000
  1 H s       :     0.944618  s :     0.944618
      pz      :     0.000000  p :     0.048808
      px      :     0.048808
      py      :     0.000000
      dz2     :     0.001498  d :     0.005992
      dxz     :     0.000000
      dyz     :     0.000000
      dx2y2   :     0.004494
      dxy     :     0.000000
      f0      :     0.000000  f :     0.000582
      f+1     :     0.000218
      f-1     :     0.000000
      f+2     :     0.000000
      f-2     :     0.000000
      f+3     :     0.000364
      f-3     :     0.000000

---------------------------------
LOEWDIN BOND ORDERS (THRESH 0.050000)
---------------------------------
B(  0-H ,  1-H ) :   1.0000 

------------------------------------------
LOEWDIN REDUCED ORBITAL POPULATIONS PER MO
-------------------------------------------
THRESHOLD FOR PRINTING IS 0.1%
                      0         1         2         3         4         5   
                  -0.68164   0.14235   0.17915   0.46118   0.53311   0.53311
                   2.00000   0.00000   0.00000   0.00000   0.00000   0.00000
                  --------  --------  --------  --------  --------  --------
 0 H  s              47.2      39.5      49.0      22.4       0.0       0.0
 0 H  pz              0.0       0.0       0.0       0.0      45.6       4.4
 0 H  px              2.4      10.5       0.9      27.0       0.0       0.0
 0 H  py              0.0       0.0       0.0       0.0       4.4      45.6
 0 H  dz2             0.1       0.0       0.0       0.1       0.0       0.0
 0 H  dx2y2           0.2       0.0       0.0       0.4       0.0       0.0
 1 H  s              47.2      39.5      49.0      22.4       0.0       0.0
 1 H  pz              0.0       0.0       0.0       0.0      45.6       4.4
 1 H  px              2.4      10.5       0.9      27.0       0.0       0.0
 1 H  py              0.0       0.0       0.0       0.0       4.4      45.6
 1 H  dz2             0.1       0.0       0.0       0.1       0.0       0.0
 1 H  dx2y2           0.2       0.0       0.0       0.4       0.0       0.0

                      6         7         8         9        10        11   
                   0.79976   0.79976   0.82128   0.97301   1.03644   1.94934
                   0.00000   0.00000   0.00000   0.00000   0.00000   0.00000
                  --------  --------  --------  --------  --------  --------
 0 H  s               0.0       0.0       5.8      40.8      32.1      14.8
 0 H  pz              6.7      34.0       0.0       0.0       0.0       0.0
 0 H  px              0.0       0.0      36.7       4.5      17.8      20.5
 0 H  py             34.0       6.7       0.0       0.0       0.0       0.0
 0 H  dz2             0.0       0.0       1.9       1.1       0.0       3.7
 0 H  dxz             1.5       7.7       0.0       0.0       0.0       0.0
 0 H  dx2y2           0.0       0.0       5.6       3.4       0.0      11.0
 0 H  dxy             7.7       1.5       0.0       0.0       0.0       0.0
 1 H  s               0.0       0.0       5.8      40.8      32.1      14.8
 1 H  pz              6.7      34.0       0.0       0.0       0.0       0.0
 1 H  px              0.0       0.0      36.7       4.5      17.8      20.5
 1 H  py             34.0       6.7       0.0       0.0       0.0       0.0
 1 H  dz2             0.0       0.0       1.9       1.1       0.0       3.7
 1 H  dxz             1.5       7.7       0.0       0.0       0.0       0.0
 1 H  dx2y2           0.0       0.0       5.6       3.4       0.0      11.0
 1 H  dxy             7.7       1.5       0.0       0.0       0.0       0.0

                     12        13        14        15        16        17   
                   2.00028   2.00028   2.19575   2.19575   2.22105   2.22105
                   0.00000   0.00000   0.00000   0.00000   0.00000   0.00000
                  --------  --------  --------  --------  --------  --------
 0 H  pz              0.0       0.0       0.3      47.7       0.0      11.2
 0 H  py              0.0       0.0      47.7       0.3      11.2       0.0
 0 H  dz2             0.0      37.4       0.0       0.0       0.0       0.0
 0 H  dxz             0.0       0.0       0.0       1.5       0.0      38.7
 0 H  dyz            49.9       0.0       0.0       0.0       0.0       0.0
 0 H  dx2y2           0.0      12.5       0.0       0.0       0.0       0.0
 0 H  dxy             0.0       0.0       1.5       0.0      38.7       0.0
 0 H  f0              0.0       0.0       0.0       0.2       0.0       0.0
 0 H  f+2             0.0       0.0       0.0       0.3       0.0       0.0
 0 H  f-3             0.0       0.0       0.4       0.0       0.1       0.0
 1 H  pz              0.0       0.0       0.3      47.7       0.0      11.2
 1 H  py              0.0       0.0      47.7       0.3      11.2       0.0
 1 H  dz2             0.0      37.4       0.0       0.0       0.0       0.0
 1 H  dxz             0.0       0.0       0.0       1.5       0.0      38.7
 1 H  dyz            49.9       0.0       0.0       0.0       0.0       0.0
 1 H  dx2y2           0.0      12.5       0.0       0.0       0.0       0.0
 1 H  dxy             0.0       0.0       1.5       0.0      38.7       0.0
 1 H  f0              0.0       0.0       0.0       0.2       0.0       0.0
 1 H  f+2             0.0       0.0       0.0       0.3       0.0       0.0
 1 H  f-3             0.0       0.0       0.4       0.0       0.1       0.0

                     18        19        20        21        22        23   
                   2.51268   2.55834   2.55834   2.62230   2.62230   2.75682
                   0.00000   0.00000   0.00000   0.00000   0.00000   0.00000
                  --------  --------  --------  --------  --------  --------
 0 H  s               1.2       0.0       0.0       0.0       0.0       4.7
 0 H  pz              0.0       0.0       0.0       1.3       0.0       0.0
 0 H  px             19.5       0.0       0.0       0.0       0.0       8.5
 0 H  py              0.0       0.0       0.0       0.0       1.3       0.0
 0 H  dz2             7.2      32.0       0.0       0.0       0.0       7.5
 0 H  dxz             0.0       0.0       0.0      43.0       0.8       0.0
 0 H  dyz             0.0       0.0      42.7       0.0       0.0       0.0
 0 H  dx2y2          21.7      10.7       0.0       0.0       0.0      22.5
 0 H  dxy             0.0       0.0       0.0       0.8      43.0       0.0
 0 H  f0              0.0       0.0       0.0       1.8       0.0       0.0
 0 H  f+1             0.1       4.6       0.0       0.0       0.0       2.6
 0 H  f-1             0.0       0.0       0.0       0.0       0.3       0.0
 0 H  f+2             0.0       0.0       0.0       3.0       0.1       0.0
 0 H  f-2             0.0       0.0       7.3       0.0       0.0       0.0
 0 H  f+3             0.2       2.7       0.0       0.0       0.0       4.3
 0 H  f-3             0.0       0.0       0.0       0.1       4.5       0.0
 1 H  s               1.2       0.0       0.0       0.0       0.0       4.7
 1 H  pz              0.0       0.0       0.0       1.3       0.0       0.0
 1 H  px             19.5       0.0       0.0       0.0       0.0       8.5
 1 H  py              0.0       0.0       0.0       0.0       1.3       0.0
 1 H  dz2             7.2      32.0       0.0       0.0       0.0       7.5
 1 H  dxz             0.0       0.0       0.0      43.0       0.8       0.0
 1 H  dyz             0.0       0.0      42.7       0.0       0.0       0.0
 1 H  dx2y2          21.7      10.7       0.0       0.0       0.0      22.5
 1 H  dxy             0.0       0.0       0.0       0.8      43.0       0.0
 1 H  f0              0.0       0.0       0.0       1.8       0.0       0.0
 1 H  f+1             0.1       4.6       0.0       0.0       0.0       2.6
 1 H  f-1             0.0       0.0       0.0       0.0       0.3       0.0
 1 H  f+2             0.0       0.0       0.0       3.0       0.1       0.0
 1 H  f-2             0.0       0.0       7.3       0.0       0.0       0.0
 1 H  f+3             0.2       2.7       0.0       0.0       0.0       4.3
 1 H  f-3             0.0       0.0       0.0       0.1       4.5       0.0

                     24        25        26        27        28        29   
                   3.08364   3.94414   4.20282   4.20282   5.77633   5.77633
                   0.00000   0.00000   0.00000   0.00000   0.00000   0.00000
                  --------  --------  --------  --------  --------  --------
 0 H  s              25.5      30.1       0.0       0.0       0.0       0.0
 0 H  pz              0.0       0.0       0.0      23.0       0.0       0.0
 0 H  px             20.1      12.9       0.0       0.0       0.0       0.0
 0 H  py              0.0       0.0      23.0       0.0       0.0       0.0
 0 H  dz2             1.1       1.0       0.0       0.0       0.0       0.0
 0 H  dxz             0.0       0.0       0.0      13.3       0.0       0.0
 0 H  dx2y2           3.3       2.9       0.0       0.0       0.0       0.0
 0 H  dxy             0.0       0.0      13.3       0.0       0.0       0.0
 0 H  f0              0.0       0.0       0.0       5.1       1.2      30.1
 0 H  f+1             0.0       1.1       0.0       0.0       0.0       0.0
 0 H  f-1             0.0       0.0       0.9       0.0      45.1       1.8
 0 H  f+2             0.0       0.0       0.0       8.5       0.7      18.0
 0 H  f+3             0.0       1.9       0.0       0.0       0.0       0.0
 0 H  f-3             0.0       0.0      12.8       0.0       3.0       0.1
 1 H  s              25.5      30.1       0.0       0.0       0.0       0.0
 1 H  pz              0.0       0.0       0.0      23.0       0.0       0.0
 1 H  px             20.1      12.9       0.0       0.0       0.0       0.0
 1 H  py              0.0       0.0      23.0       0.0       0.0       0.0
 1 H  dz2             1.1       1.0       0.0       0.0       0.0       0.0
 1 H  dxz             0.0       0.0       0.0      13.3       0.0       0.0
 1 H  dx2y2           3.3       2.9       0.0       0.0       0.0       0.0
 1 H  dxy             0.0       0.0      13.3       0.0       0.0       0.0
 1 H  f0              0.0       0.0       0.0       5.1       1.2      30.1
 1 H  f+1             0.0       1.1       0.0       0.0       0.0       0.0
 1 H  f-1             0.0       0.0       0.9       0.0      45.1       1.8
 1 H  f+2             0.0       0.0       0.0       8.5       0.7      18.0
 1 H  f+3             0.0       1.9       0.0       0.0       0.0       0.0
 1 H  f-3             0.0       0.0      12.8       0.0       3.0       0.1

                     30        31        32        33        34        35   
                   6.07044   6.82023   6.87482   6.87482   6.90263   6.90263
                   0.00000   0.00000   0.00000   0.00000   0.00000   0.00000
                  --------  --------  --------  --------  --------  --------
 0 H  s               2.0      12.3       0.0       0.0       0.0       0.0
 0 H  px              4.9       6.0       0.0       0.0       0.0       0.0
 0 H  dz2             1.4       7.9      10.4       0.0       0.0       3.5
 0 H  dyz             0.0       0.0       0.0      13.8       4.6       0.0
 0 H  dx2y2           4.2      23.7       3.5       0.0       0.0       1.2
 0 H  f+1            14.1       0.0      22.6       0.0       0.0      28.3
 0 H  f-2             0.0       0.0       0.0      36.2      45.4       0.0
 0 H  f+3            23.5       0.1      13.6       0.0       0.0      17.0
 1 H  s               2.0      12.3       0.0       0.0       0.0       0.0
 1 H  px              4.9       6.0       0.0       0.0       0.0       0.0
 1 H  dz2             1.4       7.9      10.4       0.0       0.0       3.5
 1 H  dyz             0.0       0.0       0.0      13.8       4.6       0.0
 1 H  dx2y2           4.2      23.7       3.5       0.0       0.0       1.2
 1 H  f+1            14.1       0.0      22.6       0.0       0.0      28.3
 1 H  f-2             0.0       0.0       0.0      36.2      45.4       0.0
 1 H  f+3            23.5       0.1      13.6       0.0       0.0      17.0

                     36        37        38        39        40        41   
                   7.07204   7.07204   7.11032   7.11032   7.11910   7.11910
                   0.00000   0.00000   0.00000   0.00000   0.00000   0.00000
                  --------  --------  --------  --------  --------  --------
 0 H  pz             15.8       0.1       0.0       7.1       0.0       0.0
 0 H  py              0.1      15.8       7.1       0.0       0.0       0.0
 0 H  dxz             3.5       0.0       0.0       7.5       0.0       0.0
 0 H  dxy             0.0       3.5       7.5       0.0       0.0       0.0
 0 H  f0             11.4       0.0       0.0      13.3      30.5       0.7
 0 H  f-1             0.0       1.9       2.2       0.0       1.1      45.8
 0 H  f+2            19.1       0.1       0.0      22.1      18.3       0.4
 0 H  f-3             0.1      28.6      33.2       0.0       0.1       3.1
 1 H  pz             15.8       0.1       0.0       7.1       0.0       0.0
 1 H  py              0.1      15.8       7.1       0.0       0.0       0.0
 1 H  dxz             3.5       0.0       0.0       7.5       0.0       0.0
 1 H  dxy             0.0       3.5       7.5       0.0       0.0       0.0
 1 H  f0             11.4       0.0       0.0      13.3      30.5       0.7
 1 H  f-1             0.0       1.9       2.2       0.0       1.1      45.8
 1 H  f+2            19.1       0.1       0.0      22.1      18.3       0.4
 1 H  f-3             0.1      28.6      33.2       0.0       0.1       3.1

                     42        43        44        45        46        47   
                   7.28608   7.28608   7.67148   7.76310   7.89470   7.89470
                   0.00000   0.00000   0.00000   0.00000   0.00000   0.00000
                  --------  --------  --------  --------  --------  --------
 0 H  s               0.0       0.0       5.1       2.1       0.0       0.0
 0 H  pz             16.7       2.7       0.0       0.0       0.0       0.0
 0 H  px              0.0       0.0       6.9      33.8       0.0       0.0
 0 H  py              2.7      16.7       0.0       0.0       0.0       0.0
 0 H  dz2             0.0       0.0       1.5       1.3       0.0      34.1
 0 H  dxz            24.1       3.9       0.0       0.0       0.0       0.0
 0 H  dyz             0.0       0.0       0.0       0.0      45.5       0.0
 0 H  dx2y2           0.0       0.0       4.4       3.8       0.0      11.4
 0 H  dxy             3.9      24.1       0.0       0.0       0.0       0.0
 0 H  f0              0.9       0.1       0.0       0.0       0.0       0.0
 0 H  f+1             0.0       0.0      12.1       3.4       0.0       2.8
 0 H  f-1             0.0       0.1       0.0       0.0       0.0       0.0
 0 H  f+2             1.4       0.2       0.0       0.0       0.0       0.0
 0 H  f-2             0.0       0.0       0.0       0.0       4.5       0.0
 0 H  f+3             0.0       0.0      20.1       5.7       0.0       1.7
 0 H  f-3             0.3       2.1       0.0       0.0       0.0       0.0
 1 H  s               0.0       0.0       5.1       2.1       0.0       0.0
 1 H  pz             16.7       2.7       0.0       0.0       0.0       0.0
 1 H  px              0.0       0.0       6.9      33.8       0.0       0.0
 1 H  py              2.7      16.7       0.0       0.0       0.0       0.0
 1 H  dz2             0.0       0.0       1.5       1.3       0.0      34.1
 1 H  dxz            24.1       3.9       0.0       0.0       0.0       0.0
 1 H  dyz             0.0       0.0       0.0       0.0      45.5       0.0
 1 H  dx2y2           0.0       0.0       4.4       3.8       0.0      11.4
 1 H  dxy             3.9      24.1       0.0       0.0       0.0       0.0
 1 H  f0              0.9       0.1       0.0       0.0       0.0       0.0
 1 H  f+1             0.0       0.0      12.1       3.4       0.0       2.8
 1 H  f-1             0.0       0.1       0.0       0.0       0.0       0.0
 1 H  f+2             1.4       0.2       0.0       0.0       0.0       0.0
 1 H  f-2             0.0       0.0       0.0       0.0       4.5       0.0
 1 H  f+3             0.0       0.0      20.1       5.7       0.0       1.7
 1 H  f-3             0.3       2.1       0.0       0.0       0.0       0.0

                     48        49        50        51        52        53   
                   8.75802   9.06034   9.06034  10.66492  10.66492  11.37143
                   0.00000   0.00000   0.00000   0.00000   0.00000   0.00000
                  --------  --------  --------  --------  --------  --------
 0 H  s               1.1       0.0       0.0       0.0       0.0       0.0
 0 H  pz              0.0       0.0      44.6      15.5       0.0       0.0
 0 H  px             14.1       0.0       0.0       0.0       0.0       0.0
 0 H  py              0.0      44.6       0.0       0.0      15.5       0.0
 0 H  dz2             8.1       0.0       0.0       0.0       0.0      32.6
 0 H  dxz             0.0       0.0       4.6      23.1       0.0       0.0
 0 H  dx2y2          24.4       0.0       0.0       0.0       0.0      10.9
 0 H  dxy             0.0       4.6       0.0       0.0      23.1       0.0
 0 H  f0              0.0       0.0       0.3       4.3       0.0       0.0
 0 H  f+1             0.8       0.0       0.0       0.0       0.0       4.1
 0 H  f-1             0.0       0.1       0.0       0.0       0.7       0.0
 0 H  f+2             0.0       0.0       0.5       7.1       0.0       0.0
 0 H  f+3             1.4       0.0       0.0       0.0       0.0       2.4
 0 H  f-3             0.0       0.8       0.0       0.0      10.7       0.0
 1 H  s               1.1       0.0       0.0       0.0       0.0       0.0
 1 H  pz              0.0       0.0      44.6      15.5       0.0       0.0
 1 H  px             14.1       0.0       0.0       0.0       0.0       0.0
 1 H  py              0.0      44.6       0.0       0.0      15.5       0.0
 1 H  dz2             8.1       0.0       0.0       0.0       0.0      32.6
 1 H  dxz             0.0       0.0       4.6      23.1       0.0       0.0
 1 H  dx2y2          24.4       0.0       0.0       0.0       0.0      10.9
 1 H  dxy             0.0       4.6       0.0       0.0      23.1       0.0
 1 H  f0              0.0       0.0       0.3       4.3       0.0       0.0
 1 H  f+1             0.8       0.0       0.0       0.0       0.0       4.1
 1 H  f-1             0.0       0.1       0.0       0.0       0.7       0.0
 1 H  f+2             0.0       0.0       0.5       7.1       0.0       0.0
 1 H  f+3             1.4       0.0       0.0       0.0       0.0       2.4
 1 H  f-3             0.0       0.8       0.0       0.0      10.7       0.0

                     54        55        56        57        58        59   
                  11.37143  11.99165  15.14073  15.14073  15.97035  18.58971
                   0.00000   0.00000   0.00000   0.00000   0.00000   0.00000
                  --------  --------  --------  --------  --------  --------
 0 H  s               0.0      11.2       0.0       0.0      27.7      25.3
 0 H  pz              0.0       0.0       0.0      23.4       0.0       0.0
 0 H  px              0.0      20.9       0.0       0.0      19.0      12.9
 0 H  py              0.0       0.0      23.4       0.0       0.0       0.0
 0 H  dz2             0.0       2.7       0.0       0.0       0.7       2.8
 0 H  dxz             0.0       0.0       0.0      26.6       0.0       0.0
 0 H  dyz            43.5       0.0       0.0       0.0       0.0       0.0
 0 H  dx2y2           0.0       8.0       0.0       0.0       2.1       8.4
 0 H  dxy             0.0       0.0      26.6       0.0       0.0       0.0
 0 H  f+1             0.0       2.7       0.0       0.0       0.2       0.3
 0 H  f-2             6.5       0.0       0.0       0.0       0.0       0.0
 0 H  f+3             0.0       4.5       0.0       0.0       0.3       0.4
 1 H  s               0.0      11.2       0.0       0.0      27.7      25.3
 1 H  pz              0.0       0.0       0.0      23.4       0.0       0.0
 1 H  px              0.0      20.9       0.0       0.0      19.0      12.9
 1 H  py              0.0       0.0      23.4       0.0       0.0       0.0
 1 H  dz2             0.0       2.7       0.0       0.0       0.7       2.8
 1 H  dxz             0.0       0.0       0.0      26.6       0.0       0.0
 1 H  dyz            43.5       0.0       0.0       0.0       0.0       0.0
 1 H  dx2y2           0.0       8.0       0.0       0.0       2.1       8.4
 1 H  dxy             0.0       0.0      26.6       0.0       0.0       0.0
 1 H  f+1             0.0       2.7       0.0       0.0       0.2       0.3
 1 H  f-2             6.5       0.0       0.0       0.0       0.0       0.0
 1 H  f+3             0.0       4.5       0.0       0.0       0.3       0.4



                      *****************************
                      * MAYER POPULATION ANALYSIS *
                      *****************************

  NA   - Mulliken gross atomic population
  ZA   - Total nuclear charge
  QA   - Mulliken gross atomic charge
  VA   - Mayer's total valence
  BVA  - Mayer's bonded valence
  FA   - Mayer's free valence

  ATOM       NA         ZA         QA         VA         BVA        FA
  0 H      1.0000     1.0000     0.0000     1.0000     1.0000     0.0000
  1 H      1.0000     1.0000    -0.0000     1.0000     1.0000    -0.0000

  Mayer bond orders larger than 0.100000
B(  0-H ,  1-H ) :   1.0000 

-------
TIMINGS
-------

Total SCF time: 0 days 0 hours 0 min 1 sec 

Total time                  ....       1.771 sec
Sum of individual times     ....       1.480 sec  ( 83.6%)

Fock matrix formation       ....       1.338 sec  ( 75.6%)
Diagonalization             ....       0.003 sec  (  0.2%)
Density matrix formation    ....       0.000 sec  (  0.0%)
Population analysis         ....       0.024 sec  (  1.4%)
Initial guess               ....       0.102 sec  (  5.8%)
Orbital Transformation      ....       0.000 sec  (  0.0%)
Orbital Orthonormalization  ....       0.000 sec  (  0.0%)
DIIS solution               ....       0.003 sec  (  0.2%)
SOSCF solution              ....       0.002 sec  (  0.1%)


------------------------------------------------------------------------------- 
                              ORCA-MATRIX DRIVEN CI                            
------------------------------------------------------------------------------- 

--------------------------------
AUTOMATIC CHOICE OF INCORE LEVEL
--------------------------------

Memory available                           ...    256.00 MB
Memory needed for S+T                      ...      0.08 MB
Memory needed for J+K                      ...      0.16 MB
Memory needed for DIIS                     ...      1.12 MB
Memory needed for 3-ext                    ...      1.57 MB
Memory needed for 4-ext                    ...     47.01 MB
Memory needed for triples                  ...      7.83 MB
 -> Final InCoreLevel    ... 5
 -> check shows that triples correction can be computed


Wavefunction type
-----------------
Correlation treatment                      ...      CCSD     
Single excitations                         ... ON
Orbital optimization                       ... OFF
Calculation of Z vector                    ... OFF
Calculation of Brueckner orbitals          ... OFF
Perturbative triple excitations            ... ON
Calculation of F12 correction              ... OFF
Frozen core treatment                      ... chemical core (0 el)
Reference Wavefunction                     ... RHF
  Internal Orbitals:     0 ...    0 (  1 MO's/  2 electrons)
  Virtual  Orbitals:     1 ...   59 ( 59 MO's              )
Number of AO's                             ...     60
Number of electrons                        ...      2
Number of correlated electrons             ...      2

Algorithmic settings
--------------------
Integral transformation                    ... AO direct full transformation
K(C) Formation                             ... FULL-MO TRAFO
Maximum number of iterations               ...        50
Convergence tolerance (max. residuum)      ... 1.000e-05
Level shift for amplitude update           ... 2.000e-01
Maximum number of DIIS vectors             ...         7
DIIS turned on at iteration                ...         0
Damping before turning on DIIS             ...     0.500
Damping after turning on DIIS              ...     0.000
Pair specific amplitude update             ... OFF
Natural orbital iterations                 ... OFF
Perturbative natural orbital generation    ... OFF
Printlevel                                 ... 2

Memory handling:
----------------
Maximum memory for working arrays          ...    256 MB
Data storage in matrix containers          ... UNCOMPRESSED
Data type for integral storage             ... DOUBLE
In-Core Storage of quantities:
   Amplitudes+Sigma Vector      ... YES
   J+K operators                ... YES
   DIIS vectors                 ... YES
   3-external integrals         ... YES
   4-external integrals         ... YES


Initializing the integral package          ... done
Warning: reference  - re-canonicalizations have been set to INT 1 VIRT 1

--------------------------
CLOSED-SHELL FOCK OPERATOR
--------------------------

<ss|ss>:          666 b            0 skpd (  0.0%)    0.000 s ( 0.000 ms/b)
<ss|sp>:         1728 b            0 skpd (  0.0%)    0.001 s ( 0.001 ms/b)
<ss|sd>:         1152 b            0 skpd (  0.0%)    0.001 s ( 0.001 ms/b)
<ss|sf>:          576 b            0 skpd (  0.0%)    0.001 s ( 0.001 ms/b)
<ss|pp>:          756 b            0 skpd (  0.0%)    0.001 s ( 0.001 ms/b)
<ss|pd>:          864 b            0 skpd (  0.0%)    0.001 s ( 0.001 ms/b)
<ss|pf>:          432 b            0 skpd (  0.0%)    0.001 s ( 0.002 ms/b)
<ss|dd>:          360 b            0 skpd (  0.0%)    0.001 s ( 0.002 ms/b)
<ss|df>:          288 b            0 skpd (  0.0%)    0.001 s ( 0.003 ms/b)
<ss|ff>:          108 b            0 skpd (  0.0%)    0.000 s ( 0.004 ms/b)
<sp|sp>:         1176 b            0 skpd (  0.0%)    0.001 s ( 0.001 ms/b)
<sp|sd>:         1536 b            0 skpd (  0.0%)    0.002 s ( 0.001 ms/b)
<sp|sf>:          768 b            0 skpd (  0.0%)    0.001 s ( 0.002 ms/b)
<sp|pp>:         1008 b            0 skpd (  0.0%)    0.001 s ( 0.001 ms/b)
<sp|pd>:         1152 b            0 skpd (  0.0%)    0.003 s ( 0.002 ms/b)
<sp|pf>:          576 b            0 skpd (  0.0%)    0.002 s ( 0.003 ms/b)
<sp|dd>:          480 b            0 skpd (  0.0%)    0.002 s ( 0.003 ms/b)
<sp|df>:          384 b            0 skpd (  0.0%)    0.002 s ( 0.005 ms/b)
<sp|ff>:          144 b            0 skpd (  0.0%)    0.001 s ( 0.008 ms/b)
<sd|sd>:          528 b            0 skpd (  0.0%)    0.001 s ( 0.002 ms/b)
<sd|sf>:          512 b            0 skpd (  0.0%)    0.002 s ( 0.003 ms/b)
<sd|pp>:          672 b            0 skpd (  0.0%)    0.002 s ( 0.002 ms/b)
<sd|pd>:          768 b            0 skpd (  0.0%)    0.003 s ( 0.004 ms/b)
<sd|pf>:          384 b            0 skpd (  0.0%)    0.002 s ( 0.006 ms/b)
<sd|dd>:          320 b            0 skpd (  0.0%)    0.002 s ( 0.007 ms/b)
<sd|df>:          256 b            0 skpd (  0.0%)    0.003 s ( 0.011 ms/b)
<sd|ff>:           96 b            0 skpd (  0.0%)    0.002 s ( 0.016 ms/b)
<sf|sf>:          136 b            0 skpd (  0.0%)    0.001 s ( 0.006 ms/b)
<sf|pp>:          336 b            0 skpd (  0.0%)    0.001 s ( 0.004 ms/b)
<sf|pd>:          384 b            0 skpd (  0.0%)    0.003 s ( 0.007 ms/b)
<sf|pf>:          192 b            0 skpd (  0.0%)    0.002 s ( 0.011 ms/b)
<sf|dd>:          160 b            0 skpd (  0.0%)    0.002 s ( 0.011 ms/b)
<sf|df>:          128 b            0 skpd (  0.0%)    0.003 s ( 0.021 ms/b)
<sf|ff>:           48 b            0 skpd (  0.0%)    0.002 s ( 0.034 ms/b)
<pp|pp>:          231 b            0 skpd (  0.0%)    0.001 s ( 0.003 ms/b)
<pp|pd>:          504 b            0 skpd (  0.0%)    0.003 s ( 0.006 ms/b)
<pp|pf>:          252 b            0 skpd (  0.0%)    0.002 s ( 0.008 ms/b)
<pp|dd>:          210 b            0 skpd (  0.0%)    0.002 s ( 0.008 ms/b)
<pp|df>:          168 b            0 skpd (  0.0%)    0.002 s ( 0.014 ms/b)
<pp|ff>:           63 b            0 skpd (  0.0%)    0.001 s ( 0.019 ms/b)
<pd|pd>:          300 b            0 skpd (  0.0%)    0.003 s ( 0.010 ms/b)
<pd|pf>:          288 b            0 skpd (  0.0%)    0.004 s ( 0.014 ms/b)
<pd|dd>:          240 b            0 skpd (  0.0%)    0.004 s ( 0.018 ms/b)
<pd|df>:          192 b            0 skpd (  0.0%)    0.005 s ( 0.028 ms/b)
<pd|ff>:           72 b            0 skpd (  0.0%)    0.003 s ( 0.039 ms/b)
<pf|pf>:           78 b            0 skpd (  0.0%)    0.002 s ( 0.024 ms/b)
<pf|dd>:          120 b            0 skpd (  0.0%)    0.003 s ( 0.024 ms/b)
<pf|df>:           96 b            0 skpd (  0.0%)    0.004 s ( 0.047 ms/b)
<pf|ff>:           36 b            0 skpd (  0.0%)    0.003 s ( 0.073 ms/b)
<dd|dd>:           55 b            0 skpd (  0.0%)    0.002 s ( 0.031 ms/b)
<dd|df>:           80 b            0 skpd (  0.0%)    0.004 s ( 0.054 ms/b)
<dd|ff>:           30 b            0 skpd (  0.0%)    0.002 s ( 0.078 ms/b)
<df|df>:           36 b            0 skpd (  0.0%)    0.003 s ( 0.092 ms/b)
<df|ff>:           24 b            0 skpd (  0.0%)    0.004 s ( 0.147 ms/b)
<ff|ff>:            6 b            0 skpd (  0.0%)    0.002 s ( 0.253 ms/b)
Recanonicalizing the internal orbitals
Recanonicalizing the virtual orbitals
Time needed for Fock operator              ...            0.216 sec
Reference energy                           ...     -1.065721951

------------------------------
PARTIAL COULOMB TRANSFORMATION
------------------------------

Transformation type                        ... one-operator
Dimension of the basis                     ...   60
Number of internal MOs                     ...   60 (0-59)
Pair cutoff                                ... 0.000e+00 Eh
Number of AO pairs included in the trafo   ... 1830
Total Number of distinct AO pairs          ... 1830
Memory devoted for trafo                   ...  256.0 MB 
Max. Number of MO pairs treated together   ... 18335      
Max. Number of MOs treated per batch       ...  305      
Number Format for Storage                  ... Double (8 Byte)
AO-integral source                         ... DIRECT
Integral package used                      ... LIBINT

Starting integral evaluation:
<ss|**>:         7560 b        0 skpd     0.010 s (  0.001 ms/b)
<sp|**>:        10080 b        0 skpd     0.018 s (  0.002 ms/b)
<sd|**>:         6720 b        0 skpd     0.023 s (  0.003 ms/b)
<sf|**>:         3360 b        0 skpd     0.020 s (  0.006 ms/b)
<pp|**>:         4410 b        0 skpd     0.018 s (  0.004 ms/b)
<pd|**>:         5040 b        0 skpd     0.040 s (  0.008 ms/b)
<pf|**>:         2520 b        0 skpd     0.030 s (  0.012 ms/b)
<dd|**>:         2100 b        0 skpd     0.028 s (  0.013 ms/b)
<df|**>:         1680 b        0 skpd     0.037 s (  0.022 ms/b)
<ff|**>:          630 b        0 skpd     0.020 s (  0.032 ms/b)
Closing buffer AOJ ( 0.02 GB; CompressionRatio= 1.00)
Collecting buffer AOJ 
    ... done with AO integral generation
Number of MO pairs included in the trafo   ... 1830
    ... Now sorting integrals
IBATCH = 1 of  1
Closing buffer JAO ( 0.02 GB; CompressionRatio= 1.00)
Collecting buffer JAO 
TOTAL TIME for half transformation         ...     0.787 sec
AO-integral generation                     ...     0.132 sec
Half transformation                        ...     0.112 sec
J-integral sorting                         ...     0.533 sec

-------------------------- SECOND HALF TRANSFORMATION -------------------------
Formation of (pq|rs)                       ... ok (     0.130 sec)
Integral sorting                           ... ok (     0.144 sec)

------------------
CLOSED SHELL GUESS
------------------

Initial guess performed in     0.000 sec
E(0)                                       ...     -1.065721951
E(MP2)                                     ...     -0.032833085
Initial E(tot)                             ...     -1.098555036
<T|T>                                      ...      0.008007424
Number of pairs included                   ... 1
Total number of pairs                      ... 1

------------------------------------------------
                  RHF COUPLED CLUSTER ITERATIONS
------------------------------------------------

Number of amplitudes to be optimized       ... 3540

Iter       E(tot)           E(Corr)          Delta-E          Residual     Time
  0     -1.098555036     -0.032833085      0.000000000      0.012939161    0.04
                           *** Turning on DIIS ***
  1     -1.102525664     -0.036803713     -0.003970628      0.004645351    0.12
  2     -1.104215706     -0.038493754     -0.001690042      0.000943869    0.11
  3     -1.104408332     -0.038686381     -0.000192626      0.000216802    0.11
  4     -1.104419902     -0.038697950     -0.000011570      0.000041937    0.11
  5     -1.104420571     -0.038698620     -0.000000670      0.000005050    0.11
               --- The Coupled-Cluster iterations have converged ---

----------------------
COUPLED CLUSTER ENERGY
----------------------

E(0)                                       ...     -1.065721951
E(CORR)                                    ...     -0.038698620
E(TOT)                                     ...     -1.104420571
Singles Norm <S|S>**1/2                    ...      0.003588473  
T1 diagnostic                              ...      0.002537434  

------------------
LARGEST AMPLITUDES
------------------
   0->  5   0->  5       0.030979
   0->  4   0->  4       0.030979
   0->  3   0->  3       0.028690
   0->  9   0->  9       0.026387
   0->  3   0-> 10       0.023141
   0-> 10   0->  3       0.023141
   0->  2   0->  9       0.021693
   0->  9   0->  2       0.021693
   0->  2   0->  2       0.020842
   0-> 10   0-> 10       0.020620
   0->  5   0-> 15       0.017191
   0-> 15   0->  5       0.017191
   0-> 14   0->  4       0.017191
   0->  4   0-> 14       0.017191
   0-> 15   0-> 15       0.017062
   0-> 14   0-> 14       0.017062


        !!!!!!!!!!!!!!!!!!!!!!!!!!!!!!!!!!!!!!!!!!!!!!!!!!!!!!!!!!!!!!!!!!!!!!!!!! 
        !  Warning: Densities are linearized densities !                         !
        !!!!!!!!!!!!!!!!!!!!!!!!!!!!!!!!!!!!!!!!!!!!!!!!!!!!!!!!!!!!!!!!!!!!!!!!!! 

Trace of internal density part =     -0.025193065
Trace of external density part =      0.025193065
----------------------
RHF TRIPLES CORRECTION (Algorithm 1)
----------------------

Multiplier for the singles contribution    ...      1.000000000

Triples Correction (T)                     ...      0.000000000
Scaling of triples based on CCSD energies (Peterson et al. Molecular Physics 113, 1551 (2015))
E(T*) = f*E(T) where f = E(F12-CCSD)/E(CCSD) 
f = CCSD (with F12)/ CCSD (without F12)    ...      1.000000000
Scaled triples correction (T)              ...      0.000000000

Final correlation energy                   ...     -0.038698620
E(CCSD)                                    ...     -1.104420571
E(CCSD(T))                                 ...     -1.104420571

NORM  =      1.012609410 sqrt=     1.006284955
W(HF) =      0.987547608
------------------------------------------------------------------------------
                           ORCA POPULATION ANALYSIS
------------------------------------------------------------------------------
Input electron density              ... H2_0_1_RCCSD-T_def2-qzvpp.sp.mdcip
BaseName (.gbw .S,...)              ... H2_0_1_RCCSD-T_def2-qzvpp.sp

                    ********************************
                    * MULLIKEN POPULATION ANALYSIS *
                    ********************************

-----------------------
MULLIKEN ATOMIC CHARGES
-----------------------
   0 H :   -0.000000
   1 H :    0.000000
Sum of atomic charges:   -0.0000000

--------------------------------
MULLIKEN REDUCED ORBITAL CHARGES
--------------------------------
  0 H s       :     0.982386  s :     0.982386
      pz      :     0.001983  p :     0.017178
      px      :     0.013213
      py      :     0.001983
      dz2     :     0.000064  d :     0.000407
      dxz     :     0.000100
      dyz     :     0.000049
      dx2y2   :     0.000094
      dxy     :     0.000100
      f0      :     0.000003  f :     0.000029
      f+1     :     0.000006
      f-1     :     0.000004
      f+2     :     0.000003
      f-2     :     0.000004
      f+3     :     0.000007
      f-3     :     0.000002
  1 H s       :     0.982386  s :     0.982386
      pz      :     0.001983  p :     0.017178
      px      :     0.013213
      py      :     0.001983
      dz2     :     0.000064  d :     0.000407
      dxz     :     0.000100
      dyz     :     0.000049
      dx2y2   :     0.000094
      dxy     :     0.000100
      f0      :     0.000003  f :     0.000029
      f+1     :     0.000006
      f-1     :     0.000004
      f+2     :     0.000003
      f-2     :     0.000004
      f+3     :     0.000007
      f-3     :     0.000002

------------------------
MULLIKEN OVERLAP CHARGES
------------------------
B(  0-H ,  1-H ) :   0.8936 


                     *******************************
                     * LOEWDIN POPULATION ANALYSIS *
                     *******************************

----------------------
LOEWDIN ATOMIC CHARGES
----------------------
   0 H :   -0.000000
   1 H :    0.000000

-------------------------------
LOEWDIN REDUCED ORBITAL CHARGES
-------------------------------
  0 H s       :     0.935785  s :     0.935785
      pz      :     0.001911  p :     0.056304
      px      :     0.052482
      py      :     0.001911
      dz2     :     0.001729  d :     0.007191
      dxz     :     0.000161
      dyz     :     0.000047
      dx2y2   :     0.005094
      dxy     :     0.000161
      f0      :     0.000008  f :     0.000720
      f+1     :     0.000256
      f-1     :     0.000004
      f+2     :     0.000010
      f-2     :     0.000006
      f+3     :     0.000423
      f-3     :     0.000013
  1 H s       :     0.935785  s :     0.935785
      pz      :     0.001911  p :     0.056304
      px      :     0.052482
      py      :     0.001911
      dz2     :     0.001729  d :     0.007191
      dxz     :     0.000161
      dyz     :     0.000047
      dx2y2   :     0.005094
      dxy     :     0.000161
      f0      :     0.000008  f :     0.000720
      f+1     :     0.000256
      f-1     :     0.000004
      f+2     :     0.000010
      f-2     :     0.000006
      f+3     :     0.000423
      f-3     :     0.000013

---------------------------------
LOEWDIN BOND ORDERS (THRESH 0.050000)
---------------------------------
B(  0-H ,  1-H ) :   0.9748 


                      *****************************
                      * MAYER POPULATION ANALYSIS *
                      *****************************

  NA   - Mulliken gross atomic population
  ZA   - Total nuclear charge
  QA   - Mulliken gross atomic charge
  VA   - Mayer's total valence
  BVA  - Mayer's bonded valence
  FA   - Mayer's free valence

  ATOM       NA         ZA         QA         VA         BVA        FA
  0 H      1.0000     1.0000    -0.0000     1.0222     0.9723     0.0499
  1 H      1.0000     1.0000     0.0000     1.0222     0.9723     0.0499

  Mayer bond orders larger than 0.100000
B(  0-H ,  1-H ) :   0.9723 



------------------------------------------------------------------------------- 
                                     TIMINGS                                   
------------------------------------------------------------------------------- 


Total execution time                   ...        2.180 sec

Fock Matrix Formation                  ...        0.216 sec (  9.9%)
Initial Guess                          ...        0.000 sec (  0.0%)
DIIS Solver                            ...        0.001 sec (  0.0%)
State Vector Update                    ...        0.000 sec (  0.0%)
Sigma-vector construction              ...        0.616 sec ( 28.2%)
  <D|H|D>(4-ext)                       ...        0.137 sec ( 22.3% of sigma)
  <D|H|D>(4-ext-corr)                  ...        0.022 sec (  3.6% of sigma)
  <S|H|D>(3-ext)                       ...        0.005 sec (  0.8% of sigma)
  Fock-dressing                        ...        0.430 sec ( 69.8% of sigma)
  (ij|ab),(ia|jb)-dressing             ...        0.013 sec (  2.2% of sigma)
Total Time for computing (T)           ...        0.001 sec (  0.1% of ALL)
  I/O of integral and amplitudes       ...        0.001 sec ( 99.7% of (T))


-------------------------   --------------------
FINAL SINGLE POINT ENERGY        -1.104420571486
-------------------------   --------------------

Storing actual gbw-file in H2_0_1_RCCSD-T_def2-qzvpp.sp.001.gbw ... done

                            ***************************************
                            *     ORCA property calculations      *
                            ***************************************

                                    ---------------------
                                    Active property flags
                                    ---------------------
   (+) Dipole Moment


------------------------------------------------------------------------------
                       ORCA ELECTRIC PROPERTIES CALCULATION
------------------------------------------------------------------------------

Dipole Moment Calculation                       ... on
Quadrupole Moment Calculation                   ... off
Polarizability Calculation                      ... off
GBWName                                         ... H2_0_1_RCCSD-T_def2-qzvpp.sp.gbw
Electron density file                           ... H2_0_1_RCCSD-T_def2-qzvpp.sp.scfp
The origin for moment calculation is the CENTER OF MASS  = ( 0.473553,  0.000000  0.000000)

-------------
DIPOLE MOMENT
-------------
                                X             Y             Z
Electronic contribution:      0.00000       0.00000      -0.00000
Nuclear contribution   :      0.00000       0.00000       0.00000
                        -----------------------------------------
Total Dipole Moment    :      0.00000       0.00000      -0.00000
                        -----------------------------------------
Magnitude (a.u.)       :      0.00000
Magnitude (Debye)      :      0.00000



--------------------
Rotational spectrum 
--------------------
 
Rotational constants in cm-1:     0.000000   133.157724   133.157724 
Rotational constants in MHz :     0.000000 3991968.149099 3991968.149099 

 Dipole components along the rotational axes: 
x,y,z [a.u.] :     0.000000     0.000000    -0.000000 
x,y,z [Debye]:     0.000000     0.000000    -0.000000 

 

                           *** MDCI DENSITY ***

------------------------------------------------------------------------------
                       ORCA ELECTRIC PROPERTIES CALCULATION
------------------------------------------------------------------------------

Dipole Moment Calculation                       ... on
Quadrupole Moment Calculation                   ... off
Polarizability Calculation                      ... off
GBWName                                         ... H2_0_1_RCCSD-T_def2-qzvpp.sp.gbw
Electron density file                           ... H2_0_1_RCCSD-T_def2-qzvpp.sp.mdcip
The origin for moment calculation is the CENTER OF MASS  = ( 0.473553,  0.000000  0.000000)

-------------
DIPOLE MOMENT
-------------
                                X             Y             Z
Electronic contribution:      0.00000      -0.00000      -0.00000
Nuclear contribution   :      0.00000       0.00000       0.00000
                        -----------------------------------------
Total Dipole Moment    :      0.00000      -0.00000      -0.00000
                        -----------------------------------------
Magnitude (a.u.)       :      0.00000
Magnitude (Debye)      :      0.00000



--------------------
Rotational spectrum 
--------------------
 
Rotational constants in cm-1:     0.000000   133.157724   133.157724 
Rotational constants in MHz :     0.000000 3991968.149099 3991968.149099 

 Dipole components along the rotational axes: 
x,y,z [a.u.] :     0.000000    -0.000000    -0.000000 
x,y,z [Debye]:     0.000000    -0.000000    -0.000000 

 

         *************************************************************
                                TRAJECTORY STEP   2
                RHH  :   0.60842987
         *************************************************************
---------------------------------
CARTESIAN COORDINATES (ANGSTROEM)
---------------------------------
  H      0.000000    0.000000    0.000000
  H      0.608430    0.000000    0.000000

----------------------------
CARTESIAN COORDINATES (A.U.)
----------------------------
  NO LB      ZA    FRAG     MASS         X           Y           Z
   0 H     1.0000    0     1.008    0.000000    0.000000    0.000000
   1 H     1.0000    0     1.008    1.149766    0.000000    0.000000

--------------------------------
INTERNAL COORDINATES (ANGSTROEM)
--------------------------------
 H      0   0   0     0.000000000000     0.00000000     0.00000000
 H      1   0   0     0.608429869077     0.00000000     0.00000000

---------------------------
INTERNAL COORDINATES (A.U.)
---------------------------
 H      0   0   0     0.000000000000     0.00000000     0.00000000
 H      1   0   0     1.149765824252     0.00000000     0.00000000


Diagonalization of the overlap matrix:
Smallest eigenvalue                        ... 8.441e-05
Time for diagonalization                   ...    0.002 sec
Threshold for overlap eigenvalues          ... 1.000e-08
Number of eigenvalues below threshold      ... 0
Time for construction of square roots      ...    0.002 sec
Total time needed                          ...    0.004 sec

--------------
SCF ITERATIONS
--------------
ITER       Energy         Delta-E        Max-DP      RMS-DP      [F,P]     Damp
               ***  Starting incremental Fock matrix formation  ***
  0     -1.1153646230   0.000000000000 0.00246953  0.00013881  0.0776430 0.7000
  1     -1.1162563764  -0.000891753441 0.00197666  0.00011732  0.0587836 0.7000
                               ***Turning on DIIS***
  2     -1.1169393699  -0.000682993433 0.00470204  0.00029743  0.0433489 0.0000
  3     -1.1195233704  -0.002584000502 0.00117934  0.00005259  0.0052936 0.0000
                      *** Initiating the SOSCF procedure ***
                           *** Shutting down DIIS ***
                      *** Re-Reading the Fockian *** 
                      *** Removing any level shift *** 
ITER      Energy       Delta-E        Grad      Rot      Max-DP    RMS-DP
  4     -1.11890961   0.0006137600  0.000841  0.000841  0.000316  0.000018
               *** Restarting incremental Fock matrix formation ***
  5     -1.11872996   0.0001796545  0.000268  0.000326  0.000181  0.000009
  6     -1.11873018  -0.0000002280  0.000066  0.000106  0.000070  0.000003
                  ***Gradient check signals convergence***
              ***Rediagonalizing the Fockian in SOSCF/NRSCF***

               *****************************************************
               *                     SUCCESS                       *
               *           SCF CONVERGED AFTER   7 CYCLES          *
               *****************************************************

Total Energy       :           -1.11873020 Eh             -30.44220 eV
  Last Energy change         ...   -1.4780e-08  Tolerance :   1.0000e-08
  Last MAX-Density change    ...    2.0779e-06  Tolerance :   1.0000e-07
             **** THE GBW FILE WAS UPDATED (H2_0_1_RCCSD-T_def2-qzvpp.sp.gbw) ****
             **** DENSITY FILE WAS UPDATED (H2_0_1_RCCSD-T_def2-qzvpp.sp.scfp) ****
             **** ENERGY FILE WAS UPDATED (H2_0_1_RCCSD-T_def2-qzvpp.sp.en.tmp) ****
             **** THE GBW FILE WAS UPDATED (H2_0_1_RCCSD-T_def2-qzvpp.sp.gbw) ****
             **** DENSITY FILE WAS UPDATED (H2_0_1_RCCSD-T_def2-qzvpp.sp.scfp) ****
Total SCF time: 0 days 0 hours 0 min 1 sec 


------------------------------------------------------------------------------- 
                              ORCA-MATRIX DRIVEN CI                            
------------------------------------------------------------------------------- 

--------------------------------
AUTOMATIC CHOICE OF INCORE LEVEL
--------------------------------

Memory available                           ...    256.00 MB
Memory needed for S+T                      ...      0.08 MB
Memory needed for J+K                      ...      0.16 MB
Memory needed for DIIS                     ...      1.12 MB
Memory needed for 3-ext                    ...      1.57 MB
Memory needed for 4-ext                    ...     47.01 MB
Memory needed for triples                  ...      7.83 MB
 -> Final InCoreLevel    ... 5
 -> check shows that triples correction can be computed


Wavefunction type
-----------------
Correlation treatment                      ...      CCSD     
Single excitations                         ... ON
Orbital optimization                       ... OFF
Calculation of Z vector                    ... OFF
Calculation of Brueckner orbitals          ... OFF
Perturbative triple excitations            ... ON
Calculation of F12 correction              ... OFF
Frozen core treatment                      ... chemical core (0 el)
Reference Wavefunction                     ... RHF
  Internal Orbitals:     0 ...    0 (  1 MO's/  2 electrons)
  Virtual  Orbitals:     1 ...   59 ( 59 MO's              )
Number of AO's                             ...     60
Number of electrons                        ...      2
Number of correlated electrons             ...      2

Algorithmic settings
--------------------
Integral transformation                    ... AO direct full transformation
K(C) Formation                             ... FULL-MO TRAFO
Maximum number of iterations               ...        50
Convergence tolerance (max. residuum)      ... 1.000e-05
Level shift for amplitude update           ... 2.000e-01
Maximum number of DIIS vectors             ...         7
DIIS turned on at iteration                ...         0
Damping before turning on DIIS             ...     0.500
Damping after turning on DIIS              ...     0.000
Pair specific amplitude update             ... OFF
Natural orbital iterations                 ... OFF
Perturbative natural orbital generation    ... OFF
Printlevel                                 ... 2

Memory handling:
----------------
Maximum memory for working arrays          ...    256 MB
Data storage in matrix containers          ... UNCOMPRESSED
Data type for integral storage             ... DOUBLE
In-Core Storage of quantities:
   Amplitudes+Sigma Vector      ... YES
   J+K operators                ... YES
   DIIS vectors                 ... YES
   3-external integrals         ... YES
   4-external integrals         ... YES


Initializing the integral package          ... done
Warning: reference  - re-canonicalizations have been set to INT 1 VIRT 1

--------------------------
CLOSED-SHELL FOCK OPERATOR
--------------------------

<ss|ss>:          666 b            0 skpd (  0.0%)    0.000 s ( 0.000 ms/b)
<ss|sp>:         1728 b            0 skpd (  0.0%)    0.001 s ( 0.001 ms/b)
<ss|sd>:         1152 b            0 skpd (  0.0%)    0.001 s ( 0.001 ms/b)
<ss|sf>:          576 b            0 skpd (  0.0%)    0.001 s ( 0.001 ms/b)
<ss|pp>:          756 b            0 skpd (  0.0%)    0.001 s ( 0.001 ms/b)
<ss|pd>:          864 b            0 skpd (  0.0%)    0.001 s ( 0.001 ms/b)
<ss|pf>:          432 b            0 skpd (  0.0%)    0.001 s ( 0.002 ms/b)
<ss|dd>:          360 b            0 skpd (  0.0%)    0.001 s ( 0.002 ms/b)
<ss|df>:          288 b            0 skpd (  0.0%)    0.001 s ( 0.003 ms/b)
<ss|ff>:          108 b            0 skpd (  0.0%)    0.000 s ( 0.004 ms/b)
<sp|sp>:         1176 b            0 skpd (  0.0%)    0.001 s ( 0.001 ms/b)
<sp|sd>:         1536 b            0 skpd (  0.0%)    0.002 s ( 0.001 ms/b)
<sp|sf>:          768 b            0 skpd (  0.0%)    0.001 s ( 0.002 ms/b)
<sp|pp>:         1008 b            0 skpd (  0.0%)    0.001 s ( 0.001 ms/b)
<sp|pd>:         1152 b            0 skpd (  0.0%)    0.003 s ( 0.002 ms/b)
<sp|pf>:          576 b            0 skpd (  0.0%)    0.002 s ( 0.003 ms/b)
<sp|dd>:          480 b            0 skpd (  0.0%)    0.002 s ( 0.003 ms/b)
[...]
 32     -0.537214116      0.190587056      0.000080004      0.000081628    0.04
 33     -0.537197128      0.190604045      0.000016988      0.000077153    0.04
 34     -0.537212892      0.190588280     -0.000015764      0.000032551    0.05
 35     -0.537203939      0.190597233      0.000008953      0.000009528    0.04
               --- The Coupled-Cluster iterations have converged ---

----------------------
COUPLED CLUSTER ENERGY
----------------------

E(0)                                       ...     -0.727801173
E(CORR)                                    ...      0.190597233
E(TOT)                                     ...     -0.537203939
Singles Norm <S|S>**1/2                    ...      0.159042242  
T1 diagnostic                              ...      0.112459848  

------------------
LARGEST AMPLITUDES
------------------
   0->  1   0->  1       0.999944
   0->  2   0->  2       0.120540
   0->  3   0->  3       0.120489
   0->  2  -1-> -1       0.112058
   0->  1   0->  3       0.111935
   0->  3   0->  1       0.111935
   0->  3  -1-> -1       0.111832
   0->  1   0->  2       0.111709
   0->  2   0->  1       0.111709
   0->  4   0->  4       0.056340
   0->  9   0->  9       0.056338
   0->  7   0->  7       0.056333
   0->  8   0->  8       0.056333
   0->  6   0->  6       0.056333
   0->  5   0->  5       0.056333
   0->  2   0-> 10       0.034141


        !!!!!!!!!!!!!!!!!!!!!!!!!!!!!!!!!!!!!!!!!!!!!!!!!!!!!!!!!!!!!!!!!!!!!!!!!! 
        !  Warning: Densities are linearized densities !                         !
        !!!!!!!!!!!!!!!!!!!!!!!!!!!!!!!!!!!!!!!!!!!!!!!!!!!!!!!!!!!!!!!!!!!!!!!!!! 

Trace of internal density part =     -2.262253166
Trace of external density part =      2.262253166
----------------------
RHF TRIPLES CORRECTION (Algorithm 1)
----------------------

Multiplier for the singles contribution    ...      1.000000000

Triples Correction (T)                     ...      0.000000000
Scaling of triples based on CCSD energies (Peterson et al. Molecular Physics 113, 1551 (2015))
E(T*) = f*E(T) where f = E(F12-CCSD)/E(CCSD) 
f = CCSD (with F12)/ CCSD (without F12)    ...      1.000000000
Scaled triples correction (T)              ...      0.000000000

Final correlation energy                   ...      0.190597233
E(CCSD)                                    ...     -0.537203939
E(CCSD(T))                                 ...     -0.537203939

NORM  =      2.156421018 sqrt=     1.468475746
W(HF) =      0.463731336
------------------------------------------------------------------------------
                           ORCA POPULATION ANALYSIS
------------------------------------------------------------------------------
Input electron density              ... H2_0_1_RCCSD-T_def2-qzvpp.sp.mdcip
BaseName (.gbw .S,...)              ... H2_0_1_RCCSD-T_def2-qzvpp.sp


------------------------------------------------------------------------------- 
                                     TIMINGS                                   
------------------------------------------------------------------------------- 


Total execution time                   ...        2.474 sec

Fock Matrix Formation                  ...        0.031 sec (  1.3%)
Initial Guess                          ...        0.000 sec (  0.0%)
DIIS Solver                            ...        0.012 sec (  0.5%)
State Vector Update                    ...        0.001 sec (  0.0%)
Sigma-vector construction              ...        1.615 sec ( 65.2%)
  <D|H|D>(2-ext Fock)                  ...        0.001 sec (  0.1% of sigma)
  <D|H|D>(2-ext)                       ...        0.004 sec (  0.3% of sigma)
  <D|H|D>(4-ext)                       ...        0.774 sec ( 47.9% of sigma)
  <D|H|D>(4-ext-corr)                  ...        0.117 sec (  7.3% of sigma)
  <S|H|S>                              ...        0.001 sec (  0.1% of sigma)
  <D|H|S>(1-ext)                       ...        0.002 sec (  0.1% of sigma)
  <S|H|D>(3-ext)                       ...        0.031 sec (  1.9% of sigma)
  Fock-dressing                        ...        0.620 sec ( 38.4% of sigma)
  (ij|ab),(ia|jb)-dressing             ...        0.027 sec (  1.7% of sigma)
  Pair energies                        ...        0.001 sec (  0.1% of sigma)
Total Time for computing (T)           ...        0.001 sec (  0.0% of ALL)
  I/O of integral and amplitudes       ...        0.001 sec ( 99.7% of (T))


-------------------------   --------------------
FINAL SINGLE POINT ENERGY        -0.537203939101
-------------------------   --------------------

Storing actual gbw-file in H2_0_1_RCCSD-T_def2-qzvpp.sp.020.gbw ... done

                            ***************************************
                            *     ORCA property calculations      *
                            ***************************************

                                    ---------------------
                                    Active property flags
                                    ---------------------
   (+) Dipole Moment


------------------------------------------------------------------------------
                       ORCA ELECTRIC PROPERTIES CALCULATION
------------------------------------------------------------------------------

Dipole Moment Calculation                       ... on
Quadrupole Moment Calculation                   ... off
Polarizability Calculation                      ... off
GBWName                                         ... H2_0_1_RCCSD-T_def2-qzvpp.sp.gbw
Electron density file                           ... H2_0_1_RCCSD-T_def2-qzvpp.sp.scfp
The origin for moment calculation is the CENTER OF MASS  = (18.852497,  0.000000  0.000000)

-------------
DIPOLE MOMENT
-------------
                                X             Y             Z
Electronic contribution:     -0.00000      -0.00000      -0.00000
Nuclear contribution   :     -0.00000       0.00000       0.00000
                        -----------------------------------------
Total Dipole Moment    :     -0.00000      -0.00000      -0.00000
                        -----------------------------------------
Magnitude (a.u.)       :      0.00000
Magnitude (Debye)      :      0.00000



--------------------
Rotational spectrum 
--------------------
 
Rotational constants in cm-1:     0.000000     0.084017     0.084017 
Rotational constants in MHz :     0.000000  2518.761623  2518.761623 

 Dipole components along the rotational axes: 
x,y,z [a.u.] :    -0.000000    -0.000000    -0.000000 
x,y,z [Debye]:    -0.000000    -0.000000    -0.000000 

 

                           *** MDCI DENSITY ***

------------------------------------------------------------------------------
                       ORCA ELECTRIC PROPERTIES CALCULATION
------------------------------------------------------------------------------

Dipole Moment Calculation                       ... on
Quadrupole Moment Calculation                   ... off
Polarizability Calculation                      ... off
GBWName                                         ... H2_0_1_RCCSD-T_def2-qzvpp.sp.gbw
Electron density file                           ... H2_0_1_RCCSD-T_def2-qzvpp.sp.mdcip
The origin for moment calculation is the CENTER OF MASS  = (18.852497,  0.000000  0.000000)

-------------
DIPOLE MOMENT
-------------
                                X             Y             Z
Electronic contribution:      0.00000       0.00000       0.00000
Nuclear contribution   :     -0.00000       0.00000       0.00000
                        -----------------------------------------
Total Dipole Moment    :      0.00000       0.00000       0.00000
                        -----------------------------------------
Magnitude (a.u.)       :      0.00000
Magnitude (Debye)      :      0.00001



--------------------
Rotational spectrum 
--------------------
 
Rotational constants in cm-1:     0.000000     0.084017     0.084017 
Rotational constants in MHz :     0.000000  2518.761623  2518.761623 

 Dipole components along the rotational axes: 
x,y,z [a.u.] :     0.000004     0.000000     0.000000 
x,y,z [Debye]:     0.000011     0.000000     0.000000 

 
                              **** TRAJECTORY DONE ***

                         SUMMARY OF THE CALCULATED SURFACE

------------------
TRAJECTORY RESULTS
------------------

Column   1: RHH

The Calculated Surface using the 'Actual Energy'
   0.50118723  -1.10442057
   0.60842987  -1.15789524
   0.73861998  -1.17386310
   0.89666781  -1.16227759
   1.08853427  -1.13247224
   1.32145577  -1.09355156
   1.60421716  -1.05469928
   1.94748304  -1.02460729
   2.36419999  -1.00792139
   2.87008485  -1.00174997
   3.48421754  -1.00024577
   4.22976062  -1.00000034
   5.13483291  -0.99997114
   6.23357002  -0.99996759
   7.56741181  -0.99996734
   9.18666532  -0.99996634
  11.15240214  -0.99996700
  13.53876180  -0.99996559
  16.43574799  -0.99996344
  19.95262315  -0.53720394

                        *******************************
                        *   FIT OF THE ACT-ENERGY PES *
                        *******************************
-------------------------------
POTENTIAL ENERGY SURFACE =   0
-------------------------------

Minimum found after 21 iterations
Equilibrium distance and its energy from the interpolated PES:
  Re      =   0.72588 Angstroem  (  1.37171 Bohr)
  E(Re)   =    -1.173954 Eh 
  dE/dR   = -4.324e-09 (-1.123e-01 CHEB)
  d2E/dR2 =    0.346739 (   0.798478 CHEB) (  -0.014317 NUM)
  d3E/dR3 =   -4.125875 (  -3.021589 CHEB)

Spectroscopic constants:
  we =    4280.8 cm**-1 (based on SPLINE)
  we =    6496.1 cm**-1 (based on CHEB)
  we =      -nan cm**-1 (based on NUM)

Performing Morse fit ...
Morse-Fit Results:
 Te(adiabatic)   =    5439.4 cm**-1         =  0.674 eV
 d2E/dR**2 (Morse)=      0.118418445 
 d3E/dR**3 (Morse)=     -0.192337551 
 d4E/dR**4 (Morse)=      0.242976539 
 E0               =     -1.149170407 Eh  RMS=7.29e-05
 Re               =   0.71640 Angstroem      =  1.35379 Bohr RMS=1.31e-04)
 De(Morse)        =   5.49659 eV             =  44333.0 cm**-1 RMS=1.04e-04
 D0(Morse)        =   5.34150 eV
 beta             =   0.54141 au          RMS=8.38e-04
 we               =   2501.7 cm**-1
 wexe             =     35.3 cm**-1
 Displacement   =   -0.0095 Angstroem      = -0.01792 Bohr

Minimum found after 22 iterations
Equilibrium distance and its energy from the interpolated PES:
  Re      =  10.41408 Angstroem  ( 19.67977 Bohr)
  E(Re)   =    -1.001014 Eh 
  dE/dR   = -4.223e-10 (-2.327e-02 CHEB)
  d2E/dR2 =    0.000818 (   0.072894 CHEB) (  -0.000236 NUM)
  d3E/dR3 =    0.000554 (  -0.292947 CHEB)

Spectroscopic constants:
  we =     208.0 cm**-1 (based on SPLINE)
  we =    1962.8 cm**-1 (based on CHEB)
  we =      -nan cm**-1 (based on NUM)

Performing Morse fit ...
Morse-Fit Results:
 Te(adiabatic)   =   26977.2 cm**-1         =  3.345 eV
 d2E/dR**2 (Morse)=      0.000061711 
 d3E/dR**3 (Morse)=      0.000032784 
 d4E/dR**4 (Morse)=      0.000013547 
 E0               =     -1.051037013 Eh  RMS=3.33e-05
 Re               =  10.47211 Angstroem      = 19.78941 Bohr RMS=4.86e-05)
 De(Morse)        =   0.02677 eV             =    215.9 cm**-1 RMS=7.07e-06
 D0(Morse)        =   0.02323 eV
 beta             =  -0.17709 au          RMS=1.91e-04
 we               =     57.1 cm**-1
 wexe             =      3.8 cm**-1
 Displacement   =    9.7462 Angstroem      = 18.41770 Bohr

The Calculated Surface using the SCF energy
   0.50118723  -1.06572195
   0.60842987  -1.11873020
   0.73861998  -1.13357376
   0.89666781  -1.11970442
   1.08853427  -1.08564726
   1.32145577  -1.03897337
   1.60421716  -0.98627822
   1.94748304  -0.93313758
   2.36419999  -0.88402268
   2.87008485  -0.84211191
   3.48421754  -0.80914173
   4.22976062  -0.78513790
   5.13483291  -0.76868281
   6.23357002  -0.75755469
   7.56741181  -0.74957808
   9.18666532  -0.74335182
  11.15240214  -0.73826877
  13.53876180  -0.73408483
  16.43574799  -0.73063915
  19.95262315  -0.72780117

                        *******************************
                        *       FIT OF THE SCF PES    *
                        *******************************
-------------------------------
POTENTIAL ENERGY SURFACE =   0
-------------------------------

Minimum found after 17 iterations
Equilibrium distance and its energy from the interpolated PES:
  Re      =   0.71811 Angstroem  (  1.35703 Bohr)
  E(Re)   =    -1.133848 Eh 
  dE/dR   = 2.241e-09 (-1.062e-01 CHEB)
  d2E/dR2 =    0.418414 (   0.814526 CHEB) (  -0.016346 NUM)
  d3E/dR3 =   -4.131142 (  -3.011839 CHEB)

Spectroscopic constants:
  we =    4702.4 cm**-1 (based on SPLINE)
  we =    6561.0 cm**-1 (based on CHEB)
  we =      -nan cm**-1 (based on NUM)

Performing Morse fit ...
Morse-Fit Results:
 Te(adiabatic)   =    3728.3 cm**-1         =  0.462 eV
 d2E/dR**2 (Morse)=      0.201293506 
 d3E/dR**3 (Morse)=     -0.314117598 
 d4E/dR**4 (Morse)=      0.381250395 
 E0               =     -1.116860396 Eh  RMS=7.98e-06
 Re               =   0.76320 Angstroem      =  1.44224 Bohr RMS=7.09e-05)
 De(Morse)        =  10.12204 eV             =  81639.7 cm**-1 RMS=8.44e-06
 D0(Morse)        =   9.91984 eV
 beta             =   0.52017 au          RMS=2.67e-05
 we               =   3261.6 cm**-1
 wexe             =     32.6 cm**-1
 Displacement   =    0.0451 Angstroem      =  0.08521 Bohr

The Calculated Surface using the MDCI energy
   0.50118723  -1.10442057
   0.60842987  -1.15789524
   0.73861998  -1.17386310
   0.89666781  -1.16227759
   1.08853427  -1.13247224
   1.32145577  -1.09355156
   1.60421716  -1.05469928
   1.94748304  -1.02460729
   2.36419999  -1.00792139
   2.87008485  -1.00174997
   3.48421754  -1.00024577
   4.22976062  -1.00000034
   5.13483291  -0.99997114
   6.23357002  -0.99996759
   7.56741181  -0.99996734
   9.18666532  -0.99996634
  11.15240214  -0.99996700
  13.53876180  -0.99996559
  16.43574799  -0.99996344
  19.95262315  -0.53720394

                        *******************************
                        *      FIT OF THE MDCI PES    *
                        *******************************
-------------------------------
POTENTIAL ENERGY SURFACE =   0
-------------------------------

Minimum found after 21 iterations
Equilibrium distance and its energy from the interpolated PES:
  Re      =   0.72588 Angstroem  (  1.37171 Bohr)
  E(Re)   =    -1.173954 Eh 
  dE/dR   = -4.324e-09 (-1.123e-01 CHEB)
  d2E/dR2 =    0.346739 (   0.798478 CHEB) (  -0.014317 NUM)
  d3E/dR3 =   -4.125875 (  -3.021589 CHEB)

Spectroscopic constants:
  we =    4280.8 cm**-1 (based on SPLINE)
  we =    6496.1 cm**-1 (based on CHEB)
  we =      -nan cm**-1 (based on NUM)

Performing Morse fit ...
Morse-Fit Results:
 Te(adiabatic)   =    5439.4 cm**-1         =  0.674 eV
 d2E/dR**2 (Morse)=      0.118418445 
 d3E/dR**3 (Morse)=     -0.192337551 
 d4E/dR**4 (Morse)=      0.242976539 
 E0               =     -1.149170407 Eh  RMS=7.29e-05
 Re               =   0.71640 Angstroem      =  1.35379 Bohr RMS=1.31e-04)
 De(Morse)        =   5.49659 eV             =  44333.0 cm**-1 RMS=1.04e-04
 D0(Morse)        =   5.34150 eV
 beta             =   0.54141 au          RMS=8.38e-04
 we               =   2501.7 cm**-1
 wexe             =     35.3 cm**-1
 Displacement   =   -0.0095 Angstroem      = -0.01792 Bohr

Minimum found after 22 iterations
Equilibrium distance and its energy from the interpolated PES:
  Re      =  10.41408 Angstroem  ( 19.67977 Bohr)
  E(Re)   =    -1.001014 Eh 
  dE/dR   = -4.223e-10 (-2.327e-02 CHEB)
  d2E/dR2 =    0.000818 (   0.072894 CHEB) (  -0.000236 NUM)
  d3E/dR3 =    0.000554 (  -0.292947 CHEB)

Spectroscopic constants:
  we =     208.0 cm**-1 (based on SPLINE)
  we =    1962.8 cm**-1 (based on CHEB)
  we =      -nan cm**-1 (based on NUM)

Performing Morse fit ...
Morse-Fit Results:
 Te(adiabatic)   =   26977.2 cm**-1         =  3.345 eV
 d2E/dR**2 (Morse)=      0.000061711 
 d3E/dR**3 (Morse)=      0.000032784 
 d4E/dR**4 (Morse)=      0.000013547 
 E0               =     -1.051037013 Eh  RMS=3.33e-05
 Re               =  10.47211 Angstroem      = 19.78941 Bohr RMS=4.86e-05)
 De(Morse)        =   0.02677 eV             =    215.9 cm**-1 RMS=7.07e-06
 D0(Morse)        =   0.02323 eV
 beta             =  -0.17709 au          RMS=1.91e-04
 we               =     57.1 cm**-1
 wexe             =      3.8 cm**-1
 Displacement   =    9.7462 Angstroem      = 18.41770 Bohr

The Calculated Surface using the MDCI energy minus triple correction
   0.50118723  -1.10442057
   0.60842987  -1.15789524
   0.73861998  -1.17386310
   0.89666781  -1.16227759
   1.08853427  -1.13247224
   1.32145577  -1.09355156
   1.60421716  -1.05469928
   1.94748304  -1.02460729
   2.36419999  -1.00792139
   2.87008485  -1.00174997
   3.48421754  -1.00024577
   4.22976062  -1.00000034
   5.13483291  -0.99997114
   6.23357002  -0.99996759
   7.56741181  -0.99996734
   9.18666532  -0.99996634
  11.15240214  -0.99996700
  13.53876180  -0.99996559
  16.43574799  -0.99996344
  19.95262315  -0.53720394

                        *******************************
                        *      FIT OF THE MDCI1 PES   *
                        *******************************
-------------------------------
POTENTIAL ENERGY SURFACE =   0
-------------------------------

Minimum found after 21 iterations
Equilibrium distance and its energy from the interpolated PES:
  Re      =   0.72588 Angstroem  (  1.37171 Bohr)
  E(Re)   =    -1.173954 Eh 
  dE/dR   = -4.324e-09 (-1.123e-01 CHEB)
  d2E/dR2 =    0.346739 (   0.798478 CHEB) (  -0.014317 NUM)
  d3E/dR3 =   -4.125875 (  -3.021589 CHEB)

Spectroscopic constants:
  we =    4280.8 cm**-1 (based on SPLINE)
  we =    6496.1 cm**-1 (based on CHEB)
  we =      -nan cm**-1 (based on NUM)

Performing Morse fit ...
Morse-Fit Results:
 Te(adiabatic)   =    5439.4 cm**-1         =  0.674 eV
 d2E/dR**2 (Morse)=      0.118418445 
 d3E/dR**3 (Morse)=     -0.192337551 
 d4E/dR**4 (Morse)=      0.242976539 
 E0               =     -1.149170407 Eh  RMS=7.29e-05
 Re               =   0.71640 Angstroem      =  1.35379 Bohr RMS=1.31e-04)
 De(Morse)        =   5.49659 eV             =  44333.0 cm**-1 RMS=1.04e-04
 D0(Morse)        =   5.34150 eV
 beta             =   0.54141 au          RMS=8.38e-04
 we               =   2501.7 cm**-1
 wexe             =     35.3 cm**-1
 Displacement   =   -0.0095 Angstroem      = -0.01792 Bohr

Minimum found after 22 iterations
Equilibrium distance and its energy from the interpolated PES:
  Re      =  10.41408 Angstroem  ( 19.67977 Bohr)
  E(Re)   =    -1.001014 Eh 
  dE/dR   = -4.223e-10 (-2.327e-02 CHEB)
  d2E/dR2 =    0.000818 (   0.072894 CHEB) (  -0.000236 NUM)
  d3E/dR3 =    0.000554 (  -0.292947 CHEB)

Spectroscopic constants:
  we =     208.0 cm**-1 (based on SPLINE)
  we =    1962.8 cm**-1 (based on CHEB)
  we =      -nan cm**-1 (based on NUM)

Performing Morse fit ...
Morse-Fit Results:
 Te(adiabatic)   =   26977.2 cm**-1         =  3.345 eV
 d2E/dR**2 (Morse)=      0.000061711 
 d3E/dR**3 (Morse)=      0.000032784 
 d4E/dR**4 (Morse)=      0.000013547 
 E0               =     -1.051037013 Eh  RMS=3.33e-05
 Re               =  10.47211 Angstroem      = 19.78941 Bohr RMS=4.86e-05)
 De(Morse)        =   0.02677 eV             =    215.9 cm**-1 RMS=7.07e-06
 D0(Morse)        =   0.02323 eV
 beta             =  -0.17709 au          RMS=1.91e-04
 we               =     57.1 cm**-1
 wexe             =      3.8 cm**-1
 Displacement   =    9.7462 Angstroem      = 18.41770 Bohr


Timings for individual modules:

Sum of individual times         ...       66.636 sec (=   1.111 min)
GTO integral calculation        ...        5.155 sec (=   0.086 min)   7.7 %
SCF iterations                  ...       22.219 sec (=   0.370 min)  33.3 %
MDCI module                     ...       39.262 sec (=   0.654 min)  58.9 %
                             ****ORCA TERMINATED NORMALLY****
TOTAL RUN TIME: 0 days 0 hours 1 minutes 11 seconds 175 msec
