
                                 *****************
                                 * O   R   C   A *
                                 *****************

           --- An Ab Initio, DFT and Semiempirical electronic structure package ---

                  #######################################################
                  #                        -***-                        #
                  #          Department of theory and spectroscopy      #
                  #               Directorship: Frank Neese             #
                  #        Max Planck Institute fuer Kohlenforschung    #
                  #                Kaiser Wilhelm Platz 1               #
                  #                 D-45470 Muelheim/Ruhr               #
                  #                      Germany                        #
                  #                                                     #
                  #                  All rights reserved                #
                  #                        -***-                        #
                  #######################################################


                         Program Version 4.2.0 -  RELEASE  -


 With contributions from (in alphabetic order):
   Daniel Aravena         : Magnetic Suceptibility
   Michael Atanasov       : Ab Initio Ligand Field Theory (pilot matlab implementation)
   Alexander A. Auer      : GIAO ZORA, VPT2
   Ute Becker             : Parallelization
   Giovanni Bistoni       : ED, misc. LED, open-shell LED, HFLED
   Martin Brehm           : Molecular dynamics
   Dmytro Bykov           : SCF Hessian
   Vijay G. Chilkuri      : MRCI spin determinant printing, contributions to CSF-ICE
   Dipayan Datta          : RHF DLPNO-CCSD density
   Achintya Kumar Dutta   : EOM-CC, STEOM-CC
   Dmitry Ganyushin       : Spin-Orbit,Spin-Spin,Magnetic field MRCI
   Miquel Garcia          : C-PCM Hessian, Gaussian charge scheme
   Yang Guo               : DLPNO-NEVPT2, CIM, IAO-localization
   Andreas Hansen         : Spin unrestricted coupled pair/coupled cluster methods
   Benjamin Helmich-Paris : CASSCF linear response (MC-RPA)
   Lee Huntington         : MR-EOM, pCC
   Robert Izsak           : Overlap fitted RIJCOSX, COSX-SCS-MP3, EOM
   Christian Kollmar      : KDIIS, OOCD, Brueckner-CCSD(T), CCSD density
   Simone Kossmann        : Meta GGA functionals, TD-DFT gradient, OOMP2, MP2 Hessian
   Martin Krupicka        : AUTO-CI
   Lucas Lang             : DCDCAS
   Dagmar Lenk            : GEPOL surface, SMD
   Dimitrios Liakos       : Extrapolation schemes; Compound Job, initial MDCI parallelization
   Dimitrios Manganas     : Further ROCIS development; embedding schemes
   Dimitrios Pantazis     : SARC Basis sets
   Taras Petrenko         : DFT Hessian,TD-DFT gradient, ASA, ECA, R-Raman, ABS, FL, XAS/XES, NRVS
   Peter Pinski           : DLPNO-MP2, DLPNO-MP2 Gradient
   Christoph Reimann      : Effective Core Potentials
   Marius Retegan         : Local ZFS, SOC
   Christoph Riplinger    : Optimizer, TS searches, QM/MM, DLPNO-CCSD(T), (RO)-DLPNO pert. Triples
   Tobias Risthaus        : Range-separated hybrids, TD-DFT gradient, RPA, STAB
   Michael Roemelt        : Original ROCIS implementation
   Masaaki Saitow         : Open-shell DLPNO-CCSD energy and density
   Barbara Sandhoefer     : DKH picture change effects
   Avijit Sen             : IP-ROCIS
   Kantharuban Sivalingam : CASSCF convergence, NEVPT2, FIC-MRCI
   Bernardo de Souza      : ESD, SOC TD-DFT
   Georgi Stoychev        : AutoAux, RI-MP2 NMR
   Willem Van den Heuvel  : Paramagnetic NMR
   Boris Wezisla          : Elementary symmetry handling
   Frank Wennmohs         : Technical directorship


 We gratefully acknowledge several colleagues who have allowed us to
 interface, adapt or use parts of their codes:
   Stefan Grimme, W. Hujo, H. Kruse,             : VdW corrections, initial TS optimization,
                  C. Bannwarth                     DFT functionals, gCP, sTDA/sTD-DF
   Ed Valeev, F. Pavosevic, A. Kumar             : LibInt (2-el integral package), F12 methods
   Garnet Chan, S. Sharma, J. Yang, R. Olivares  : DMRG
   Ulf Ekstrom                                   : XCFun DFT Library
   Mihaly Kallay                                 : mrcc  (arbitrary order and MRCC methods)
   Andreas Klamt, Michael Diedenhofen            : otool_cosmo (COSMO solvation model)
   Jiri Pittner, Ondrej Demel                    : Mk-CCSD
   Frank Weinhold                                : gennbo (NPA and NBO analysis)
   Christopher J. Cramer and Donald G. Truhlar   : smd solvation model
   Lars Goerigk                                  : TD-DFT with DH, B97 family of functionals
   V. Asgeirsson, H. Jonsson                     : NEB implementation
   FAccTs GmbH                                   : IRC, NEB, NEB-TS, Multilevel, MM, QM/MM, CI optimization
   S Lehtola, MJT Oliveira, MAL Marques          : LibXC Library


 Your calculation uses the libint2 library for the computation of 2-el integrals
 For citations please refer to: http://libint.valeyev.net

 Your ORCA version has been built with support for libXC version: 4.2.3
 For citations please refer to: https://tddft.org/programs/libxc/

 This ORCA versions uses:
   CBLAS   interface :  Fast vector & matrix operations
   LAPACKE interface :  Fast linear algebra routines
   SCALAPACK package :  Parallel linear algebra routines


----- Orbital basis set information -----
Your calculation utilizes the basis: def2-QZVPP
   F. Weigend and R. Ahlrichs, Phys. Chem. Chem. Phys. 7, 3297 (2005).

================================================================================
                                        WARNINGS
                       Please study these warnings very carefully!
================================================================================


INFO   : the flag for use of LIBINT has been found!

================================================================================
                                       INPUT FILE
================================================================================
NAME = H2_0_1_CASSCF-2-16_def2-qzvpp.sp.inp
|  1> !rhf def2-qzvpp tightscf 
|  2> !normalprint
|  3> 
|  4> %paras
|  5> #  rHH [19.952623149688797 16.43574799372698 13.538761800225439 11.152402139117903 9.1866653175426 7.567411809920191 6.233570019315557 5.134832907437553 4.229760619613384 3.4842175435383975 2.870084854071569 2.3641999865500756 1.9474830399087562 1.6042171611153242 1.32145576997553 1.088534267260644 0.8966678097917788 0.7386199822079362 0.6084298690766428 0.5011872336272722]
|  6>   rHH [0.5011872336272722 0.6084298690766428 0.7386199822079362 0.8966678097917788 1.088534267260644 1.32145576997553 1.6042171611153242 1.9474830399087562 2.3641999865500756 2.870084854071569 3.4842175435383975 4.229760619613384 5.134832907437553 6.233570019315557 7.567411809920191 9.1866653175426 11.152402139117903 13.538761800225439 16.43574799372698 19.952623149688797]
|  7> end
|  8> 
|  9> %scf
| 10>   maxiter 500
| 11> end
| 12> 
| 13> %casscf
| 14>   nel 2
| 15>   norb 16
| 16> end
| 17> 
| 18> *int 0 1
| 19> H 0 0 0 0 0 0
| 20> H 1 0 0 {rHH} 0 0
| 21> *
| 22> 
| 23>                          ****END OF INPUT****
================================================================================

                       ******************************
                       * Parameter Scan Calculation *
                       ******************************

Trajectory settings:
    -> SCF surface will be mapped

There are 1 parameter(s) to be scanned
           RHH: user defined at 20 points
There will be   20 energy evaluations


         *************************************************************
                                TRAJECTORY STEP   1
                RHH  :   0.50118723
         *************************************************************
---------------------------------
CARTESIAN COORDINATES (ANGSTROEM)
---------------------------------
  H      0.000000    0.000000    0.000000
  H      0.501187    0.000000    0.000000

----------------------------
CARTESIAN COORDINATES (A.U.)
----------------------------
  NO LB      ZA    FRAG     MASS         X           Y           Z
   0 H     1.0000    0     1.008    0.000000    0.000000    0.000000
   1 H     1.0000    0     1.008    0.947107    0.000000    0.000000

--------------------------------
INTERNAL COORDINATES (ANGSTROEM)
--------------------------------
 H      0   0   0     0.000000000000     0.00000000     0.00000000
 H      1   0   0     0.501187233627     0.00000000     0.00000000

---------------------------
INTERNAL COORDINATES (A.U.)
---------------------------
 H      0   0   0     0.000000000000     0.00000000     0.00000000
 H      1   0   0     0.947106613373     0.00000000     0.00000000

---------------------
BASIS SET INFORMATION
---------------------
There are 1 groups of distinct atoms

 Group   1 Type H   : 7s3p2d1f contracted to 4s3p2d1f pattern {4111/111/11/1}

Atom   0H    basis set group =>   1
Atom   1H    basis set group =>   1
------------------------------------------------------------------------------
                           ORCA GTO INTEGRAL CALCULATION
------------------------------------------------------------------------------

                         BASIS SET STATISTICS AND STARTUP INFO

 # of primitive gaussian shells          ...   26
 # of primitive gaussian functions       ...   66
 # of contracted shells                  ...   20
 # of contracted basis functions         ...   60
 Highest angular momentum                ...    3
 Maximum contraction depth               ...    4
 Integral package used                   ... LIBINT
 Integral threshhold            Thresh   ...  2.500e-11
 Primitive cut-off              TCut     ...  2.500e-12


------------------------------ INTEGRAL EVALUATION ----------------------------


 * One electron integrals 
 Pre-screening matrix                    ... done
 Shell pair data                         ... done (   0.000 sec)

-------------------------------------------------------------------------------
                                 ORCA SCF
-------------------------------------------------------------------------------

------------
SCF SETTINGS
------------
Hamiltonian:
 Ab initio Hamiltonian  Method          .... Hartree-Fock(GTOs)


General Settings:
 Integral files         IntName         .... H2_0_1_CASSCF-2-16_def2-qzvpp.sp
 Hartree-Fock type      HFTyp           .... CASSCF
 Total Charge           Charge          ....    0
 Multiplicity           Mult            ....    1
 Number of Electrons    NEL             ....    2
 Basis Dimension        Dim             ....   60
 Nuclear Repulsion      ENuc            ....      1.0558473417 Eh


Diagonalization of the overlap matrix:
Smallest eigenvalue                        ... 5.708e-05
Time for diagonalization                   ...    0.074 sec
Threshold for overlap eigenvalues          ... 1.000e-08
Number of eigenvalues below threshold      ... 0
Time for construction of square roots      ...    0.004 sec
Total time needed                          ...    0.079 sec

-------------------
DFT GRID GENERATION
-------------------

General Integration Accuracy     IntAcc      ...  4.340
Radial Grid Type                 RadialGrid  ... Gauss-Chebyshev
Angular Grid (max. acc.)         AngularGrid ... Lebedev-110
Angular grid pruning method      GridPruning ... 3 (G Style)
Weight generation scheme         WeightScheme... Becke
Basis function cutoff            BFCut       ...    1.0000e-11
Integration weight cutoff        WCut        ...    1.0000e-14
Grids for H and He will be reduced by one unit

# of grid points (after initial pruning)     ...   1588 (   0.0 sec)
# of grid points (after weights+screening)   ...   1560 (   0.0 sec)
nearest neighbour list constructed           ...    0.0 sec
Grid point re-assignment to atoms done       ...    0.0 sec
Grid point division into batches done        ...    0.0 sec
Reduced shell lists constructed in    0.0 sec

Total number of grid points                  ...     1560
Total number of batches                      ...       26
Average number of points per batch           ...       60
Average number of grid points per atom       ...      780
Average number of shells per batch           ...    19.15 (95.74%)
Average number of basis functions per batch  ...    57.44 (95.74%)
Average number of large shells per batch     ...    18.78 (98.07%)
Average number of large basis fcns per batch ...    56.19 (97.81%)
Maximum spatial batch extension              ...  15.26, 21.59, 21.59 au
Average spatial batch extension              ...   4.46,  7.66,  7.77 au

Time for grid setup =    0.007 sec

------------------------------
INITIAL GUESS: MODEL POTENTIAL
------------------------------
Loading Hartree-Fock densities                     ... done
Calculating cut-offs                               ... done
Setting up the integral package                    ... done
Initializing the effective Hamiltonian             ... done
Starting the Coulomb interaction                   ... done (   0.0 sec)
Reading the grid                                   ... done
Mapping shells                                     ... done
Starting the XC term evaluation                    ... done (   0.0 sec)
Transforming the Hamiltonian                       ... done (   0.0 sec)
Diagonalizing the Hamiltonian                      ... done (   0.0 sec)
Back transforming the eigenvectors                 ... done (   0.0 sec)
Now organizing SCF variables                       ... done
                      ------------------
                      INITIAL GUESS DONE (   0.1 sec)
                      ------------------


 ... the calculation is a CASSCF calculation -I'm leaving here GOOD LUCK!!!

-------------------------------------------------------------------------------
                              ORCA-CASSCF
-------------------------------------------------------------------------------

Setting up the integral package       ... done
Building the CAS space                ... done (136 configurations for Mult=1)
----------------
GENERAL CI SETUP
----------------

Checking configurations                         ... done
Determining NSOMO,NDOMO and NVMO                ... done
Building up the tree                            ... done
Building N-1 electron tree                      ... done
Building RI configuration space                 ... done
Analyzing the RI configuration space            ... done
Determining NDOMO,NSOMO,NVMO for RI space       ... done
Determination of address arrays                 ... done
Looking for max. no of open shells              ... done
Setting up coupling coefficient container       ... Memory for address arrays  		      ... done
Make address arrays			      ... done
Memory for buffers 			      ... done
Setting up spin-function prototypes	      ... (MAXOPEN=2) 0 2 4 done
Trivial cases - DOMO's			      ... done (  0.0 MB)
Number of open shells			    ...  0
domo->virtual excitations			... done (  0.0 MB)
domo->somo excitations				... done (  0.0 MB)
somo->virtual excitations			... done (  0.0 MB)
somo->somo excitations				... done (  0.0 MB)
Number of open shells			    ...  2
domo->virtual excitations			... done (  0.0 MB)
domo->somo excitations				... done (  0.0 MB)
somo->virtual excitations			... done (  0.0 MB)
somo->somo excitations				... done (  0.0 MB)
Coupling container construction done
done
Now recording sub-block dimensions              ... done
Memory used for TGeneralCI arrays =     0.0 MB
  Original space  =     0.0
  RI       space  =     0.0
  Address arrays  =     0.0
  Coupling coeffs =     0.0
Multiplicity                          ...       1
# of electrons                        ...       2
# of orbitals                         ...      16
# of roots requested                  ...       1
Configuration space:
# of configurations                   ...     136
# of CSF's                            ...     136
# of rejected configurations          ...       0
Min. # of SOMOs                       ...       0
Max. # of SOMOs                       ...       2
Max. # of DOMOs                       ...       1
Max. # of VMOs                        ...      15
RI Configuration space:
# of configurations                   ...     136
# of CSF's                            ...     136
# of rejected configurations          ...       0
Min. # of SOMOs                       ...       0
Max. # of SOMOs                       ...       2
Max. # of DOMOs                       ...       1
Max. # of VMOs                        ...      15
(N-1) Electron Configuration space:
# of configurations                   ...      16
CSF dimensions:
      0 SOMOs give     1 CSFs
      2 SOMOs give     1 CSFs


SYSTEM-SPECIFIC SETTINGS:
Number of active electrons          ...    2
Number of active orbitals           ...   16
Total number of electrons           ...    2
Total number of orbitals            ...   60

Determined orbital ranges:
   Internal       0 -   -1 (   0 orbitals)
   Active         0 -   15 (  16 orbitals)
   External      16 -   59 (  44 orbitals)
Number of rotation parameters      ...    704

CI-STEP:
CI strategy                         ... General CI
Number of multiplicity blocks       ...    1
BLOCK  1 WEIGHT=   1.0000
  Multiplicity                      ...    1
  #(Configurations)                 ...  136
  #(CSFs)                           ...  136
  #(Roots)                          ...    1
    ROOT=0 WEIGHT=    1.000000

  PrintLevel                        ...    1
  N(GuessMat)                       ...       512
  MaxDim(CI)                        ...        10
  MaxIter(CI)                       ...        64
  Energy Tolerance CI               ...  2.50e-09
  Residual Tolerance CI             ...  2.50e-09
  Shift(CI)                         ...  1.00e-04

INTEGRAL-TRANSFORMATION-STEP:
  Algorithm                         ... EXACT

ORBITAL-IMPROVEMENT-STEP:
  Algorithm                         ... SuperCI(PT)
  Default Parametrization           ... CAYLEY
  Act-Act rotations                 ... depends on algorithm used

  Note: SuperCI(PT) will ignore FreezeIE, FreezeAct and FreezeGrad. In general Default settings are encouraged.
        In conjunction with ShiftUp, ShiftDn or GradScaling the performance of SuperCI(PT) is less optimal.  

  MaxRot                            ... 2.00e-01 
  Max. no of vectors (DIIS)         ... 15
  DThresh (cut-off) metric          ... 1.00e-06
  Switch step at gradient           ...  3.00e-02 
  Switch step at iteration          ...        50   
  Switch step to                    ... SuperCI(PT)    

SCF-SETTINGS:
  Incremental                       ... on
  RIJCOSX approximation             ... off
  RI-JK approximation               ... off
  AO integral handling              ... DIRECT
  Integral Neglect Thresh           ...  2.50e-11
  Primitive cutoff TCut             ...  2.50e-12
  Energy convergence tolerance      ...  2.50e-08
  Orbital gradient convergence      ...  2.50e-04
  Max. number of iterations         ...        75  


FINAL ORBITALS:
  Active   Orbitals                 ... natural 
  Internal Orbitals                 ... canonical 
  External Orbitals                 ... canonical 

------------------
CAS-SCF ITERATIONS
------------------


MACRO-ITERATION   1: 
   --- Inactive Energy E0 = 1.05584734 Eh
CI-ITERATION   0: 
    -1.093784137   0.000000000000 (    0.00)
   CI-PROBLEM SOLVED
   DENSITIES MADE

                 <<<<<<<<<<<<<<<<<<INITIAL CI STATE CHECK>>>>>>>>>>>>>>>>>>

BLOCK  1 MULT= 1 NROOTS= 1 
ROOT   0:  E=      -1.0937841369 Eh
      0.98176 [     0]: 2000000000000000
      0.00382 [     2]: 1010000000000000

                 <<<<<<<<<<<<<<<<<<INITIAL CI STATE CHECK>>>>>>>>>>>>>>>>>>

   E(CAS)=    -1.093784137 Eh DE=     0.000000000
   --- Energy gap subspaces: Ext-Act = 0.029   Act-Int = 0.600
   N(occ)=  1.97004 0.00299 0.00656 0.00289 0.00289 0.00373 0.00119 0.00002 0.00002 0.00432 0.00204 0.00007 0.00007 0.00093 0.00112 0.00112
   ||g|| =      0.196197824 Max(G)=     0.164206097 Rot=24,0
   --- Orbital Update [SuperCI(PT)]
   --- Canonicalize Internal Space
   --- Canonicalize External Space
   --- SX_PT (Skipped TA=2 IT=0): ||X|| =      2.221745993 Max(X)(24,9) =      0.906575260 
   --- SFit(Active Orbitals)

MACRO-ITERATION   2: 
   --- Inactive Energy E0 = 1.05584734 Eh
CI-ITERATION   0: 
    -1.097834125   0.000000000000 (    0.00)
   CI-PROBLEM SOLVED
   DENSITIES MADE
   E(CAS)=    -1.097834125 Eh DE=    -0.004049988
   --- Energy gap subspaces: Ext-Act = -0.511   Act-Int = 0.600
   N(occ)=  1.97227 0.00229 0.00394 0.00233 0.00233 0.00348 0.00198 0.00008 0.00008 0.00456 0.00245 0.00010 0.00010 0.00122 0.00138 0.00138
   ||g|| =      0.107986257 Max(G)=     0.076533628 Rot=24,0
   --- Orbital Update [SuperCI(PT)]
   --- Canonicalize Internal Space
   --- Canonicalize External Space
   --- SX_PT (Skipped TA=2 IT=0): ||X|| =      1.229747629 Max(X)(18,6) =     -0.469759950 
   --- SFit(Active Orbitals)

MACRO-ITERATION   3: 
   --- Inactive Energy E0 = 1.05584734 Eh
CI-ITERATION   0: 
    -1.102635675   0.000000000000 (    0.00)
   CI-PROBLEM SOLVED
   DENSITIES MADE
   E(CAS)=    -1.102635675 Eh DE=    -0.004801551
   --- Energy gap subspaces: Ext-Act = -2.070   Act-Int = 0.600
   N(occ)=  1.97107 0.00249 0.00352 0.00258 0.00258 0.00349 0.00274 0.00013 0.00013 0.00458 0.00237 0.00009 0.00009 0.00129 0.00143 0.00143
   ||g|| =      0.054008591 Max(G)=    -0.046126778 Rot=18,0
   --- Orbital Update [SuperCI(PT)]
   --- Canonicalize Internal Space
   --- Canonicalize External Space
   --- SX_PT (Skipped TA=2 IT=0): ||X|| =      0.435533914 Max(X)(17,7) =      0.222364815 
   --- SFit(Active Orbitals)

MACRO-ITERATION   4: 
   --- Inactive Energy E0 = 1.05584734 Eh
CI-ITERATION   0: 
    -1.103409610   0.000000000000 (    0.00)
   CI-PROBLEM SOLVED
   DENSITIES MADE
   E(CAS)=    -1.103409610 Eh DE=    -0.000773935
   --- Energy gap subspaces: Ext-Act = -2.469   Act-Int = 0.600
   N(occ)=  1.97064 0.00250 0.00364 0.00264 0.00264 0.00351 0.00282 0.00012 0.00012 0.00474 0.00238 0.00008 0.00008 0.00127 0.00140 0.00140
   ||g|| =      0.016745050 Max(G)=    -0.010768019 Rot=44,0
   --- Orbital Update [SuperCI(PT)]
   --- Canonicalize Internal Space
   --- Canonicalize External Space
   --- SX_PT (Skipped TA=2 IT=0): ||X|| =      0.080325802 Max(X)(16,2) =      0.033807332 
   --- SFit(Active Orbitals)

MACRO-ITERATION   5: 
   --- Inactive Energy E0 = 1.05584734 Eh
CI-ITERATION   0: 
    -1.103443947   0.000000000000 (    0.00)
   CI-PROBLEM SOLVED
   DENSITIES MADE
   E(CAS)=    -1.103443947 Eh DE=    -0.000034337
   --- Energy gap subspaces: Ext-Act = -2.425   Act-Int = 0.600
   N(occ)=  1.97055 0.00248 0.00375 0.00263 0.00263 0.00351 0.00279 0.00012 0.00012 0.00479 0.00239 0.00008 0.00008 0.00127 0.00140 0.00140
   ||g|| =      0.005809141 Max(G)=    -0.003438894 Rot=44,0
   --- Orbital Update [SuperCI(PT)]
   --- Canonicalize Internal Space
   --- Canonicalize External Space
   --- SX_PT (Skipped TA=2 IT=0): ||X|| =      0.048001296 Max(X)(18,8) =      0.022528464 
   --- SFit(Active Orbitals)

MACRO-ITERATION   6: 
   --- Inactive Energy E0 = 1.05584734 Eh
CI-ITERATION   0: 
    -1.103449197   0.000000000000 (    0.00)
   CI-PROBLEM SOLVED
   DENSITIES MADE
   E(CAS)=    -1.103449197 Eh DE=    -0.000005250
   --- Energy gap subspaces: Ext-Act = -2.483   Act-Int = 0.600
   N(occ)=  1.97049 0.00248 0.00380 0.00265 0.00265 0.00351 0.00276 0.00011 0.00011 0.00482 0.00239 0.00008 0.00008 0.00127 0.00140 0.00140
   ||g|| =      0.004723994 Max(G)=     0.002561704 Rot=18,0
   --- Orbital Update [SuperCI(PT)]
   --- Canonicalize Internal Space
   --- Canonicalize External Space
   --- SX_PT (Skipped TA=2 IT=0): ||X|| =      0.030980614 Max(X)(18,8) =      0.013433241 
   --- SFit(Active Orbitals)

MACRO-ITERATION   7: 
   --- Inactive Energy E0 = 1.05584734 Eh
CI-ITERATION   0: 
    -1.103452384   0.000000000000 (    0.00)
   CI-PROBLEM SOLVED
   DENSITIES MADE
   E(CAS)=    -1.103452384 Eh DE=    -0.000003187
   --- Energy gap subspaces: Ext-Act = -2.464   Act-Int = 0.600
   N(occ)=  1.97048 0.00248 0.00381 0.00265 0.00265 0.00351 0.00277 0.00011 0.00011 0.00482 0.00239 0.00008 0.00008 0.00127 0.00140 0.00140
   ||g|| =      0.000876722 Max(G)=    -0.000572517 Rot=18,0
   --- Orbital Update [SuperCI(PT)]
   --- Canonicalize Internal Space
   --- Canonicalize External Space
   --- SX_PT (Skipped TA=2 IT=0): ||X|| =      0.007699702 Max(X)(18,8) =     -0.004269754 
   --- SFit(Active Orbitals)

MACRO-ITERATION   8: 
   --- Inactive Energy E0 = 1.05584734 Eh
CI-ITERATION   0: 
    -1.103452562   0.000000000000 (    0.00)
   CI-PROBLEM SOLVED
   DENSITIES MADE
   E(CAS)=    -1.103452562 Eh DE=    -0.000000178
   --- Energy gap subspaces: Ext-Act = -2.465   Act-Int = 0.600
   N(occ)=  1.97047 0.00248 0.00382 0.00265 0.00265 0.00351 0.00276 0.00011 0.00011 0.00483 0.00239 0.00008 0.00008 0.00127 0.00140 0.00140
   ||g|| =      0.000312272 Max(G)=    -0.000240436 Rot=30,0
   --- Orbital Update [SuperCI(PT)]
   --- Canonicalize Internal Space
   --- Canonicalize External Space
   --- SX_PT (Skipped TA=2 IT=0): ||X|| =      0.001965901 Max(X)(17,7) =      0.000931720 
   --- SFit(Active Orbitals)

MACRO-ITERATION   9: 
   --- Inactive Energy E0 = 1.05584734 Eh
CI-ITERATION   0: 
    -1.103452575   0.000000000000 (    0.00)
   CI-PROBLEM SOLVED
   DENSITIES MADE
   E(CAS)=    -1.103452575 Eh DE=    -0.000000013
   --- Energy gap subspaces: Ext-Act = -2.465   Act-Int = 0.600
   N(occ)=  1.97046 0.00248 0.00382 0.00265 0.00265 0.00351 0.00277 0.00011 0.00011 0.00482 0.00239 0.00008 0.00008 0.00127 0.00140 0.00140
   ||g|| =      0.000068918 Max(G)=    -0.000049634 Rot=30,0
                     ---- THE CAS-SCF ENERGY   HAS CONVERGED ----
                     ---- THE CAS-SCF GRADIENT HAS CONVERGED ----
                            --- FINALIZING ORBITALS ---
                    ---- DOING ONE FINAL ITERATION FOR PRINTING ----
   --- Forming Natural Orbitals
   --- Canonicalize Internal Space
   --- Canonicalize External Space

MACRO-ITERATION  10: 
   --- Inactive Energy E0 = 1.05584734 Eh
   --- All densities will be recomputed
CI-ITERATION   0: 
    -1.103452575   0.000000000000 (    0.00)
   CI-PROBLEM SOLVED
   DENSITIES MADE
   E(CAS)=    -1.103452575 Eh DE=     0.000000000
   --- Energy gap subspaces: Ext-Act = -3.531   Act-Int = 0.600
   N(occ)=  1.97490 0.00950 0.00676 0.00396 0.00396 0.00015 0.00013 0.00011 0.00011 0.00009 0.00008 0.00008 0.00008 0.00008 0.00000 0.00000
   ||g|| =      0.000068918 Max(G)=     0.000051823 Rot=30,0
--------------
CASSCF RESULTS
--------------

Final CASSCF energy       : -1.103452575 Eh     -30.0265 eV

----------------
ORBITAL ENERGIES
----------------

  NO   OCC          E(Eh)            E(eV) 
   0   1.9749      -0.674221       -18.3465 
   1   0.0095       0.971024        26.4229 
   2   0.0068       1.060940        28.8696 
   3   0.0040       1.189035        32.3553 
   4   0.0040       1.189035        32.3553 
   5   0.0001       3.683906       100.2442 
   6   0.0001       3.406471        92.6948 
   7   0.0001       3.322452        90.4085 
   8   0.0001       3.322452        90.4085 
   9   0.0001       4.269294       116.1734 
  10   0.0001       4.280963       116.4909 
  11   0.0001       4.280963       116.4909 
  12   0.0001       3.339026        90.8595 
  13   0.0001       3.339029        90.8596 
  14   0.0000       1.240115        33.7453 
  15   0.0000       0.290254         7.8982 
  16   0.0000       0.749630        20.3985 
  17   0.0000       1.151498        31.3339 
  18   0.0000       1.151498        31.3339 
  19   0.0000       1.267379        34.4871 
  20   0.0000       2.399867        65.3037 
  21   0.0000       2.558472        69.6196 
  22   0.0000       2.558472        69.6196 
  23   0.0000       2.579513        70.1921 
  24   0.0000       2.579513        70.1921 
  25   0.0000       2.760515        75.1174 
  26   0.0000       3.372897        91.7812 
  27   0.0000       3.372897        91.7812 
  28   0.0000       4.559147       124.0607 
  29   0.0000       4.559147       124.0607 
  30   0.0000       5.111483       139.0905 
  31   0.0000       5.776587       157.1889 
  32   0.0000       5.776587       157.1889 
  33   0.0000       5.890880       160.2990 
  34   0.0000       5.890883       160.2991 
  35   0.0000       6.186186       168.3347 
  36   0.0000       6.332166       172.3070 
  37   0.0000       6.875563       187.0936 
  38   0.0000       6.875563       187.0936 
  39   0.0000       7.111124       193.5035 
  40   0.0000       7.111124       193.5035 
  41   0.0000       7.119483       193.7310 
  42   0.0000       7.119483       193.7310 
  43   0.0000       7.145988       194.4522 
  44   0.0000       7.145988       194.4522 
  45   0.0000       7.556644       205.6267 
  46   0.0000       7.569199       205.9684 
  47   0.0000       7.569199       205.9684 
  48   0.0000       8.053908       219.1580 
  49   0.0000       8.498436       231.2542 
  50   0.0000       8.498436       231.2542 
  51   0.0000      10.623312       289.0750 
  52   0.0000      10.623312       289.0750 
  53   0.0000      11.372323       309.4567 
  54   0.0000      11.372323       309.4567 
  55   0.0000      11.992882       326.3429 
  56   0.0000      15.082883       410.4261 
  57   0.0000      15.082883       410.4261 
  58   0.0000      15.668211       426.3537 
  59   0.0000      18.505418       503.5580 


---------------------------------------------
CAS-SCF STATES FOR BLOCK  1 MULT= 1 NROOTS= 1
---------------------------------------------

ROOT   0:  E=      -1.1034525751 Eh
      0.98745 [     0]: 2000000000000000
      0.00475 [    16]: 0200000000000000
      0.00338 [    31]: 0020000000000000


--------------
DENSITY MATRIX
--------------

                  0          1          2          3          4          5    
      0       1.974898  -0.000000  -0.000000  -0.000000  -0.000000   0.000000
      1      -0.000000   0.009504   0.000000   0.000000  -0.000000   0.000000
      2      -0.000000   0.000000   0.006758   0.000000  -0.000000  -0.000000
      3      -0.000000   0.000000   0.000000   0.003960  -0.000000   0.000000
      4      -0.000000  -0.000000  -0.000000  -0.000000   0.003960  -0.000000
      5       0.000000   0.000000  -0.000000   0.000000  -0.000000   0.000145
      6      -0.000000   0.000000   0.000000   0.000000  -0.000000   0.000000
      7      -0.000000  -0.000000  -0.000000  -0.000000   0.000000  -0.000000
      8       0.000000  -0.000000  -0.000000   0.000000   0.000000   0.000000
      9      -0.000000  -0.000000   0.000000   0.000000  -0.000000   0.000000
     10       0.000000   0.000000  -0.000000   0.000000   0.000000   0.000000
     11      -0.000000   0.000000   0.000000   0.000000  -0.000000  -0.000000
     12       0.000000   0.000000  -0.000000   0.000000   0.000000  -0.000000
     13       0.000000  -0.000000  -0.000000  -0.000000   0.000000  -0.000000
     14      -0.000000   0.000000   0.000000  -0.000000   0.000000   0.000000
     15      -0.000000  -0.000000   0.000000  -0.000000   0.000000  -0.000000
                  6          7          8          9         10         11    
      0      -0.000000  -0.000000   0.000000  -0.000000   0.000000  -0.000000
      1       0.000000  -0.000000  -0.000000  -0.000000   0.000000   0.000000
      2       0.000000  -0.000000  -0.000000   0.000000  -0.000000   0.000000
      3       0.000000  -0.000000   0.000000   0.000000   0.000000   0.000000
      4      -0.000000   0.000000   0.000000  -0.000000   0.000000  -0.000000
      5       0.000000  -0.000000   0.000000   0.000000   0.000000  -0.000000
      6       0.000130  -0.000000  -0.000000   0.000000   0.000000  -0.000000
      7      -0.000000   0.000110  -0.000000  -0.000000   0.000000  -0.000000
      8      -0.000000  -0.000000   0.000110  -0.000000   0.000000   0.000000
      9       0.000000  -0.000000  -0.000000   0.000092   0.000000  -0.000000
     10       0.000000   0.000000   0.000000   0.000000   0.000084  -0.000000
     11      -0.000000  -0.000000   0.000000  -0.000000  -0.000000   0.000084
     12       0.000000  -0.000000  -0.000000  -0.000000  -0.000000   0.000000
     13      -0.000000   0.000000  -0.000000  -0.000000  -0.000000   0.000000
     14      -0.000000   0.000000  -0.000000  -0.000000   0.000000  -0.000000
     15      -0.000000  -0.000000   0.000000   0.000000   0.000000  -0.000000
                  12         13         14         15    
      0       0.000000   0.000000  -0.000000  -0.000000
      1       0.000000  -0.000000   0.000000  -0.000000
      2      -0.000000  -0.000000   0.000000   0.000000
      3       0.000000  -0.000000  -0.000000  -0.000000
      4       0.000000   0.000000   0.000000   0.000000
      5      -0.000000  -0.000000   0.000000  -0.000000
      6       0.000000  -0.000000  -0.000000  -0.000000
      7      -0.000000   0.000000   0.000000  -0.000000
      8      -0.000000  -0.000000  -0.000000   0.000000
      9      -0.000000  -0.000000  -0.000000   0.000000
     10      -0.000000  -0.000000   0.000000   0.000000
     11       0.000000   0.000000  -0.000000  -0.000000
     12       0.000082  -0.000000  -0.000000   0.000000
     13      -0.000000   0.000082  -0.000000   0.000000
     14      -0.000000  -0.000000   0.000000   0.000000
     15       0.000000   0.000000   0.000000   0.000000
Trace of the electron density:  2.000000

-----------------
ENERGY COMPONENTS
-----------------

One electron energy          :     -2.848311871 Eh         -77.5065 eV
Two electron energy          :      0.689011954 Eh          18.7490 eV
Nuclear repulsion energy     :      1.055847342 Eh          28.7311 eV
                               ----------------
                                   -1.103452575

Kinetic energy               :      1.492761927 Eh          40.6201 eV
Potential energy             :     -2.596214502 Eh         -70.6466 eV
Virial ratio                 :     -1.739201982 
                               ----------------
                                   -1.103452575

Core energy                  :      1.055847342 Eh       28.7311 eV


----------------------------
LOEWDIN ORBITAL-COMPOSITIONS
----------------------------

                      0         1         2         3         4         5   
                  -0.67422   0.97102   1.06094   1.18903   1.18903   3.68391
                   1.97490   0.00950   0.00676   0.00396   0.00396   0.00015
                  --------  --------  --------  --------  --------  --------
 0 H  s              47.2       9.8      35.6       0.0       0.0      17.9
 0 H  pz              0.0       0.0       0.0       0.0      47.1       0.0
 0 H  px              2.4      35.5      12.4       0.0       0.0      17.3
 0 H  py              0.0       0.0       0.0      47.1       0.0       0.0
 0 H  dz2             0.1       1.0       0.5       0.0       0.0       2.5
 0 H  dxz             0.0       0.0       0.0       0.0       2.8       0.0
 0 H  dx2y2           0.2       3.1       1.4       0.0       0.0       7.5
 0 H  dxy             0.0       0.0       0.0       2.8       0.0       0.0
 0 H  f+1             0.0       0.2       0.1       0.0       0.0       1.7
 0 H  f+3             0.0       0.3       0.1       0.0       0.0       2.9
 0 H  f-3             0.0       0.0       0.0       0.1       0.0       0.0
 1 H  s              47.2       9.8      35.6       0.0       0.0      17.9
 1 H  pz              0.0       0.0       0.0       0.0      47.1       0.0
 1 H  px              2.4      35.5      12.4       0.0       0.0      17.3
 1 H  py              0.0       0.0       0.0      47.1       0.0       0.0
 1 H  dz2             0.1       1.0       0.5       0.0       0.0       2.5
 1 H  dxz             0.0       0.0       0.0       0.0       2.8       0.0
 1 H  dx2y2           0.2       3.1       1.4       0.0       0.0       7.5
 1 H  dxy             0.0       0.0       0.0       2.8       0.0       0.0
 1 H  f+1             0.0       0.2       0.1       0.0       0.0       1.7
 1 H  f+3             0.0       0.3       0.1       0.0       0.0       2.9
 1 H  f-3             0.0       0.0       0.0       0.1       0.0       0.0

                      6         7         8         9        10        11   
                   3.40647   3.32245   3.32245   4.26929   4.28096   4.28096
                   0.00013   0.00011   0.00011   0.00009   0.00008   0.00008
                  --------  --------  --------  --------  --------  --------
 0 H  s               2.7       0.0       0.0      20.2       0.0       0.0
 0 H  pz              0.0       0.1      18.4       0.0      35.6       0.0
 0 H  px             23.8       0.0       0.0      15.1       0.0       0.0
 0 H  py              0.0      18.4       0.1       0.0       0.0      35.6
 0 H  dz2             4.7       0.0       0.0       3.0       0.0       0.0
 0 H  dxz             0.0       0.2      26.1       0.0      11.7       0.0
 0 H  dx2y2          14.1       0.0       0.0       9.1       0.0       0.0
 0 H  dxy             0.0      26.1       0.2       0.0       0.0      11.7
 0 H  f0              0.0       0.0       2.0       0.0       1.0       0.0
 0 H  f+1             1.8       0.0       0.0       1.0       0.0       0.0
 0 H  f-1             0.0       0.3       0.0       0.0       0.0       0.2
 0 H  f+2             0.0       0.0       3.3       0.0       1.7       0.0
 0 H  f+3             3.0       0.0       0.0       1.6       0.0       0.0
 0 H  f-3             0.0       4.9       0.0       0.0       0.0       2.5
 1 H  s               2.7       0.0       0.0      20.2       0.0       0.0
 1 H  pz              0.0       0.1      18.4       0.0      35.6       0.0
 1 H  px             23.8       0.0       0.0      15.1       0.0       0.0
 1 H  py              0.0      18.4       0.1       0.0       0.0      35.6
 1 H  dz2             4.7       0.0       0.0       3.0       0.0       0.0
 1 H  dxz             0.0       0.2      26.1       0.0      11.7       0.0
 1 H  dx2y2          14.1       0.0       0.0       9.1       0.0       0.0
 1 H  dxy             0.0      26.1       0.2       0.0       0.0      11.7
 1 H  f0              0.0       0.0       2.0       0.0       1.0       0.0
 1 H  f+1             1.8       0.0       0.0       1.0       0.0       0.0
 1 H  f-1             0.0       0.3       0.0       0.0       0.0       0.2
 1 H  f+2             0.0       0.0       3.3       0.0       1.7       0.0
 1 H  f+3             3.0       0.0       0.0       1.6       0.0       0.0
 1 H  f-3             0.0       4.9       0.0       0.0       0.0       2.5

                     12        13        14        15        16        17   
                   3.33903   3.33903   1.24012   0.29025   0.74963   1.15150
                   0.00008   0.00008   0.00000   0.00000   0.00000   0.00000
                  --------  --------  --------  --------  --------  --------
 0 H  s               0.0       0.0      42.4      49.7      46.6       0.0
 0 H  pz              0.0       0.0       0.0       0.0       0.0      48.7
 0 H  px              0.0       0.0       2.1       0.2       3.2       0.0
 0 H  dz2             0.0      34.3       1.4       0.0       0.0       0.0
 0 H  dxz             0.0       0.0       0.0       0.0       0.0       1.1
 0 H  dyz            45.7       0.0       0.0       0.0       0.0       0.0
 0 H  dx2y2           0.0      11.4       4.1       0.1       0.1       0.0
 0 H  f+1             0.0       2.7       0.0       0.0       0.0       0.0
 0 H  f-2             4.3       0.0       0.0       0.0       0.0       0.0
 0 H  f+3             0.0       1.6       0.0       0.0       0.0       0.0
 1 H  s               0.0       0.0      42.4      49.7      46.6       0.0
 1 H  pz              0.0       0.0       0.0       0.0       0.0      48.7
 1 H  px              0.0       0.0       2.1       0.2       3.2       0.0
 1 H  dz2             0.0      34.3       1.4       0.0       0.0       0.0
 1 H  dxz             0.0       0.0       0.0       0.0       0.0       1.1
 1 H  dyz            45.7       0.0       0.0       0.0       0.0       0.0
 1 H  dx2y2           0.0      11.4       4.1       0.1       0.1       0.0
 1 H  f+1             0.0       2.7       0.0       0.0       0.0       0.0
 1 H  f-2             4.3       0.0       0.0       0.0       0.0       0.0
 1 H  f+3             0.0       1.6       0.0       0.0       0.0       0.0

                     18        19        20        21        22        23   
                   1.15150   1.26738   2.39987   2.55847   2.55847   2.57951
                   0.00000   0.00000   0.00000   0.00000   0.00000   0.00000
                  --------  --------  --------  --------  --------  --------
 0 H  s               0.0       7.5      17.4       0.0       0.0       0.0
 0 H  pz              0.0       0.0       0.0       0.0       0.0       9.5
 0 H  px              0.0      39.8      21.7       0.0       0.0       0.0
 0 H  py             48.7       0.0       0.0       0.0       0.0       0.0
 0 H  dz2             0.0       0.6       2.2      32.0       0.0       0.0
 0 H  dxz             0.0       0.0       0.0       0.0       0.0      35.5
 0 H  dyz             0.0       0.0       0.0       0.0      42.7       0.0
 0 H  dx2y2           0.0       1.8       6.5      10.7       0.0       0.0
 0 H  dxy             1.1       0.0       0.0       0.0       0.0       0.0
 0 H  f0              0.0       0.0       0.0       0.0       0.0       1.8
 0 H  f+1             0.0       0.1       0.9       4.6       0.0       0.0
 0 H  f+2             0.0       0.0       0.0       0.0       0.0       3.1
 0 H  f-2             0.0       0.0       0.0       0.0       7.3       0.0
 0 H  f+3             0.0       0.2       1.4       2.7       0.0       0.0
 0 H  f-3             0.1       0.0       0.0       0.0       0.0       0.0
 1 H  s               0.0       7.5      17.4       0.0       0.0       0.0
 1 H  pz              0.0       0.0       0.0       0.0       0.0       9.5
 1 H  px              0.0      39.8      21.7       0.0       0.0       0.0
 1 H  py             48.7       0.0       0.0       0.0       0.0       0.0
 1 H  dz2             0.0       0.6       2.2      32.0       0.0       0.0
 1 H  dxz             0.0       0.0       0.0       0.0       0.0      35.5
 1 H  dyz             0.0       0.0       0.0       0.0      42.7       0.0
 1 H  dx2y2           0.0       1.8       6.5      10.7       0.0       0.0
 1 H  dxy             1.1       0.0       0.0       0.0       0.0       0.0
 1 H  f0              0.0       0.0       0.0       0.0       0.0       1.8
 1 H  f+1             0.0       0.1       0.9       4.6       0.0       0.0
 1 H  f+2             0.0       0.0       0.0       0.0       0.0       3.1
 1 H  f-2             0.0       0.0       0.0       0.0       7.3       0.0
 1 H  f+3             0.0       0.2       1.4       2.7       0.0       0.0
 1 H  f-3             0.1       0.0       0.0       0.0       0.0       0.0

                     24        25        26        27        28        29   
                   2.57951   2.76051   3.37290   3.37290   4.55915   4.55915
                   0.00000   0.00000   0.00000   0.00000   0.00000   0.00000
                  --------  --------  --------  --------  --------  --------
 0 H  s               0.0       6.3       0.0       0.0       0.0       0.0
 0 H  pz              0.0       0.0       7.9       0.0      36.8       0.0
 0 H  px              0.0      10.8       0.0       0.0       0.0       0.0
 0 H  py              9.5       0.0       0.0       7.9       0.0      36.8
 0 H  dz2             0.0       6.8       0.0       0.0       0.0       0.0
 0 H  dxz             0.0       0.0      33.0       0.0      10.3       0.0
 0 H  dx2y2           0.0      20.3       0.0       0.0       0.0       0.0
 0 H  dxy            35.5       0.0       0.0      33.0       0.0      10.3
 0 H  f0              0.0       0.0       3.4       0.0       1.1       0.0
 0 H  f+1             0.0       2.2       0.0       0.0       0.0       0.0
 0 H  f-1             0.3       0.0       0.0       0.6       0.0       0.2
 0 H  f+2             0.0       0.0       5.7       0.0       1.8       0.0
 0 H  f+3             0.0       3.6       0.0       0.0       0.0       0.0
 0 H  f-3             4.6       0.0       0.0       8.5       0.0       2.7
 1 H  s               0.0       6.3       0.0       0.0       0.0       0.0
 1 H  pz              0.0       0.0       7.9       0.0      36.8       0.0
 1 H  px              0.0      10.8       0.0       0.0       0.0       0.0
 1 H  py              9.5       0.0       0.0       7.9       0.0      36.8
 1 H  dz2             0.0       6.8       0.0       0.0       0.0       0.0
 1 H  dxz             0.0       0.0      33.0       0.0      10.3       0.0
 1 H  dx2y2           0.0      20.3       0.0       0.0       0.0       0.0
 1 H  dxy            35.5       0.0       0.0      33.0       0.0      10.3
 1 H  f0              0.0       0.0       3.4       0.0       1.1       0.0
 1 H  f+1             0.0       2.2       0.0       0.0       0.0       0.0
 1 H  f-1             0.3       0.0       0.0       0.6       0.0       0.2
 1 H  f+2             0.0       0.0       5.7       0.0       1.8       0.0
 1 H  f+3             0.0       3.6       0.0       0.0       0.0       0.0
 1 H  f-3             4.6       0.0       0.0       8.5       0.0       2.7

                     30        31        32        33        34        35   
                   5.11148   5.77659   5.77659   5.89088   5.89088   6.18619
                   0.00000   0.00000   0.00000   0.00000   0.00000   0.00000
                  --------  --------  --------  --------  --------  --------
 0 H  s               0.8       0.0       0.0       0.0       0.0      21.1
 0 H  px              4.5       0.0       0.0       0.0       0.0      15.0
 0 H  dz2             6.0       0.0       0.0      22.6       0.0       3.5
 0 H  dyz             0.0       0.0       0.0       0.0      30.2       0.0
 0 H  dx2y2          18.1       0.0       0.0       7.5       0.0      10.4
 0 H  f0              0.0       0.0      31.2       0.0       0.0       0.0
 0 H  f+1             7.7       0.0       0.0      12.4       0.0       0.0
 0 H  f-1             0.0      46.9       0.0       0.0       0.0       0.0
 0 H  f+2             0.0       0.0      18.7       0.0       0.0       0.0
 0 H  f-2             0.0       0.0       0.0       0.0      19.8       0.0
 0 H  f+3            12.9       0.0       0.0       7.4       0.0       0.0
 0 H  f-3             0.0       3.1       0.0       0.0       0.0       0.0
 1 H  s               0.8       0.0       0.0       0.0       0.0      21.1
 1 H  px              4.5       0.0       0.0       0.0       0.0      15.0
 1 H  dz2             6.0       0.0       0.0      22.6       0.0       3.5
 1 H  dyz             0.0       0.0       0.0       0.0      30.2       0.0
 1 H  dx2y2          18.1       0.0       0.0       7.5       0.0      10.4
 1 H  f0              0.0       0.0      31.2       0.0       0.0       0.0
 1 H  f+1             7.7       0.0       0.0      12.4       0.0       0.0
 1 H  f-1             0.0      46.9       0.0       0.0       0.0       0.0
 1 H  f+2             0.0       0.0      18.7       0.0       0.0       0.0
 1 H  f-2             0.0       0.0       0.0       0.0      19.8       0.0
 1 H  f+3            12.9       0.0       0.0       7.4       0.0       0.0
 1 H  f-3             0.0       3.1       0.0       0.0       0.0       0.0

                     36        37        38        39        40        41   
                   6.33217   6.87556   6.87556   7.11112   7.11112   7.11948
                   0.00000   0.00000   0.00000   0.00000   0.00000   0.00000
                  --------  --------  --------  --------  --------  --------
 0 H  s              13.4       0.0       0.0       0.0       0.0       0.0
 0 H  pz              0.0       0.0       0.0       5.9       1.1       0.0
 0 H  px             33.9       0.0       0.0       0.0       0.0       0.0
 0 H  py              0.0       0.0       0.0       1.1       5.9       0.0
 0 H  dz2             0.3      10.4       0.0       0.0       0.0       0.0
 0 H  dxz             0.0       0.0       0.0       6.3       1.2       0.0
 0 H  dyz             0.0       0.0      13.8       0.0       0.0       0.0
 0 H  dx2y2           0.8       3.5       0.0       0.0       0.0       0.0
 0 H  dxy             0.0       0.0       0.0       1.2       6.3       0.0
 0 H  f0              0.0       0.0       0.0      11.1       2.2      28.9
 0 H  f+1             0.7      22.6       0.0       0.0       0.0       0.0
 0 H  f-1             0.0       0.0       0.0       0.4       1.9       3.5
 0 H  f+2             0.0       0.0       0.0      18.5       3.6      17.4
 0 H  f-2             0.0       0.0      36.2       0.0       0.0       0.0
 0 H  f+3             1.1      13.6       0.0       0.0       0.0       0.0
 0 H  f-3             0.0       0.0       0.0       5.4      27.8       0.2
 1 H  s              13.4       0.0       0.0       0.0       0.0       0.0
 1 H  pz              0.0       0.0       0.0       5.9       1.1       0.0
 1 H  px             33.9       0.0       0.0       0.0       0.0       0.0
 1 H  py              0.0       0.0       0.0       1.1       5.9       0.0
 1 H  dz2             0.3      10.4       0.0       0.0       0.0       0.0
 1 H  dxz             0.0       0.0       0.0       6.3       1.2       0.0
 1 H  dyz             0.0       0.0      13.8       0.0       0.0       0.0
 1 H  dx2y2           0.8       3.5       0.0       0.0       0.0       0.0
 1 H  dxy             0.0       0.0       0.0       1.2       6.3       0.0
 1 H  f0              0.0       0.0       0.0      11.1       2.2      28.9
 1 H  f+1             0.7      22.6       0.0       0.0       0.0       0.0
 1 H  f-1             0.0       0.0       0.0       0.4       1.9       3.5
 1 H  f+2             0.0       0.0       0.0      18.5       3.6      17.4
 1 H  f-2             0.0       0.0      36.2       0.0       0.0       0.0
 1 H  f+3             1.1      13.6       0.0       0.0       0.0       0.0
 1 H  f-3             0.0       0.0       0.0       5.4      27.8       0.2

                     42        43        44        45        46        47   
                   7.11948   7.14599   7.14599   7.55664   7.56920   7.56920
                   0.00000   0.00000   0.00000   0.00000   0.00000   0.00000
                  --------  --------  --------  --------  --------  --------
 0 H  s               0.0       0.0       0.0       2.5       0.0       0.0
 0 H  pz              0.0       0.7       0.0       0.0       0.0       0.0
 0 H  px              0.0       0.0       0.0       4.5       0.0       0.0
 0 H  py              0.0       0.0       0.7       0.0       0.0       0.0
 0 H  dz2             0.0       0.0       0.0       3.7       0.0      18.0
 0 H  dxz             0.0      20.0       0.0       0.0       0.0       0.0
 0 H  dyz             0.0       0.0       0.0       0.0      24.1       0.0
 0 H  dx2y2           0.0       0.0       0.0      11.0       0.0       6.0
 0 H  dxy             0.0       0.0      20.0       0.0       0.0       0.0
 0 H  f0              2.3      10.9       0.0       0.0       0.0       0.0
 0 H  f+1             0.0       0.0       0.0      10.6       0.0      16.2
 0 H  f-1            43.4       0.0       1.8       0.0       0.0       0.0
 0 H  f+2             1.4      18.2       0.0       0.0       0.0       0.0
 0 H  f-2             0.0       0.0       0.0       0.0      25.9       0.0
 0 H  f+3             0.0       0.0       0.0      17.7       0.0       9.7
 0 H  f-3             2.9       0.0      27.4       0.0       0.0       0.0
 1 H  s               0.0       0.0       0.0       2.5       0.0       0.0
 1 H  pz              0.0       0.7       0.0       0.0       0.0       0.0
 1 H  px              0.0       0.0       0.0       4.5       0.0       0.0
 1 H  py              0.0       0.0       0.7       0.0       0.0       0.0
 1 H  dz2             0.0       0.0       0.0       3.7       0.0      18.0
 1 H  dxz             0.0      20.0       0.0       0.0       0.0       0.0
 1 H  dyz             0.0       0.0       0.0       0.0      24.1       0.0
 1 H  dx2y2           0.0       0.0       0.0      11.0       0.0       6.0
 1 H  dxy             0.0       0.0      20.0       0.0       0.0       0.0
 1 H  f0              2.3      10.9       0.0       0.0       0.0       0.0
 1 H  f+1             0.0       0.0       0.0      10.6       0.0      16.2
 1 H  f-1            43.4       0.0       1.8       0.0       0.0       0.0
 1 H  f+2             1.4      18.2       0.0       0.0       0.0       0.0
 1 H  f-2             0.0       0.0       0.0       0.0      25.9       0.0
 1 H  f+3             0.0       0.0       0.0      17.7       0.0       9.7
 1 H  f-3             2.9       0.0      27.4       0.0       0.0       0.0

                     48        49        50        51        52        53   
                   8.05391   8.49844   8.49844  10.62331  10.62331  11.37232
                   0.00000   0.00000   0.00000   0.00000   0.00000   0.00000
                  --------  --------  --------  --------  --------  --------
 0 H  s               1.6       0.0       0.0       0.0       0.0       0.0
 0 H  pz              0.0       0.2      47.3       0.0      20.1       0.0
 0 H  px              3.2       0.0       0.0       0.0       0.0       0.0
 0 H  py              0.0      47.3       0.2      20.1       0.0       0.0
 0 H  dz2             6.6       0.0       0.0       0.0       0.0      32.6
 0 H  dxz             0.0       0.0       2.6       0.0      19.6       0.0
 0 H  dx2y2          19.8       0.0       0.0       0.0       0.0      10.9
 0 H  dxy             0.0       2.6       0.0      19.6       0.0       0.0
 0 H  f0              0.0       0.0       0.0       0.0       3.8       0.0
 0 H  f+1             7.1       0.0       0.0       0.0       0.0       4.1
 0 H  f-1             0.0       0.0       0.0       0.6       0.0       0.0
 0 H  f+2             0.0       0.0       0.0       0.0       6.4       0.0
 0 H  f+3            11.8       0.0       0.0       0.0       0.0       2.4
 0 H  f-3             0.0       0.0       0.0       9.6       0.0       0.0
 1 H  s               1.6       0.0       0.0       0.0       0.0       0.0
 1 H  pz              0.0       0.2      47.3       0.0      20.1       0.0
 1 H  px              3.2       0.0       0.0       0.0       0.0       0.0
 1 H  py              0.0      47.3       0.2      20.1       0.0       0.0
 1 H  dz2             6.6       0.0       0.0       0.0       0.0      32.6
 1 H  dxz             0.0       0.0       2.6       0.0      19.6       0.0
 1 H  dx2y2          19.8       0.0       0.0       0.0       0.0      10.9
 1 H  dxy             0.0       2.6       0.0      19.6       0.0       0.0
 1 H  f0              0.0       0.0       0.0       0.0       3.8       0.0
 1 H  f+1             7.1       0.0       0.0       0.0       0.0       4.1
 1 H  f-1             0.0       0.0       0.0       0.6       0.0       0.0
 1 H  f+2             0.0       0.0       0.0       0.0       6.4       0.0
 1 H  f+3            11.8       0.0       0.0       0.0       0.0       2.4
 1 H  f-3             0.0       0.0       0.0       9.6       0.0       0.0

                     54        55        56        57        58        59   
                  11.37232  11.99288  15.08288  15.08288  15.66821  18.50542
                   0.00000   0.00000   0.00000   0.00000   0.00000   0.00000
                  --------  --------  --------  --------  --------  --------
 0 H  s               0.0      11.2       0.0       0.0      21.6      24.3
 0 H  pz              0.0       0.0       0.1      20.3       0.0       0.0
 0 H  px              0.0      21.0       0.0       0.0      21.9      11.8
 0 H  py              0.0       0.0      20.3       0.1       0.0       0.0
 0 H  dz2             0.0       2.7       0.0       0.0       1.3       3.2
 0 H  dxz             0.0       0.0       0.1      29.4       0.0       0.0
 0 H  dyz            43.5       0.0       0.0       0.0       0.0       0.0
 0 H  dx2y2           0.0       8.0       0.0       0.0       3.9       9.6
 0 H  dxy             0.0       0.0      29.4       0.1       0.0       0.0
 0 H  f+1             0.0       2.7       0.0       0.0       0.5       0.4
 0 H  f-2             6.5       0.0       0.0       0.0       0.0       0.0
 0 H  f+3             0.0       4.5       0.0       0.0       0.8       0.6
 0 H  f-3             0.0       0.0       0.1       0.0       0.0       0.0
 1 H  s               0.0      11.2       0.0       0.0      21.6      24.3
 1 H  pz              0.0       0.0       0.1      20.3       0.0       0.0
 1 H  px              0.0      21.0       0.0       0.0      21.9      11.8
 1 H  py              0.0       0.0      20.3       0.1       0.0       0.0
 1 H  dz2             0.0       2.7       0.0       0.0       1.3       3.2
 1 H  dxz             0.0       0.0       0.1      29.4       0.0       0.0
 1 H  dyz            43.5       0.0       0.0       0.0       0.0       0.0
 1 H  dx2y2           0.0       8.0       0.0       0.0       3.9       9.6
 1 H  dxy             0.0       0.0      29.4       0.1       0.0       0.0
 1 H  f+1             0.0       2.7       0.0       0.0       0.5       0.4
 1 H  f-2             6.5       0.0       0.0       0.0       0.0       0.0
 1 H  f+3             0.0       4.5       0.0       0.0       0.8       0.6
 1 H  f-3             0.0       0.0       0.1       0.0       0.0       0.0


----------------------------
LOEWDIN REDUCED ACTIVE MOs  
----------------------------

                      0         1         2         3         4         5   
                  -0.67422   0.97102   1.06094   1.18903   1.18903   3.68391
                   1.97490   0.00950   0.00676   0.00396   0.00396   0.00015
                  --------  --------  --------  --------  --------  --------
 0 H  s              47.2       9.8      35.6       0.0       0.0      17.9
 0 H  pz              0.0       0.0       0.0       0.0      47.1       0.0
 0 H  px              2.4      35.5      12.4       0.0       0.0      17.3
 0 H  py              0.0       0.0       0.0      47.1       0.0       0.0
 0 H  dx2y2           0.2       3.1       1.4       0.0       0.0       7.5
 1 H  s              47.2       9.8      35.6       0.0       0.0      17.9
 1 H  pz              0.0       0.0       0.0       0.0      47.1       0.0
 1 H  px              2.4      35.5      12.4       0.0       0.0      17.3
 1 H  py              0.0       0.0       0.0      47.1       0.0       0.0
 1 H  dx2y2           0.2       3.1       1.4       0.0       0.0       7.5

                      6         7         8         9        10        11   
                   3.40647   3.32245   3.32245   4.26929   4.28096   4.28096
                   0.00013   0.00011   0.00011   0.00009   0.00008   0.00008
                  --------  --------  --------  --------  --------  --------
 0 H  s               2.7       0.0       0.0      20.2       0.0       0.0
 0 H  pz              0.0       0.1      18.4       0.0      35.6       0.0
 0 H  px             23.8       0.0       0.0      15.1       0.0       0.0
 0 H  py              0.0      18.4       0.1       0.0       0.0      35.6
 0 H  dxz             0.0       0.2      26.1       0.0      11.7       0.0
 0 H  dx2y2          14.1       0.0       0.0       9.1       0.0       0.0
 0 H  dxy             0.0      26.1       0.2       0.0       0.0      11.7
 1 H  s               2.7       0.0       0.0      20.2       0.0       0.0
 1 H  pz              0.0       0.1      18.4       0.0      35.6       0.0
 1 H  px             23.8       0.0       0.0      15.1       0.0       0.0
 1 H  py              0.0      18.4       0.1       0.0       0.0      35.6
 1 H  dxz             0.0       0.2      26.1       0.0      11.7       0.0
 1 H  dx2y2          14.1       0.0       0.0       9.1       0.0       0.0
 1 H  dxy             0.0      26.1       0.2       0.0       0.0      11.7

                     12        13        14        15        16        17   
                   3.33903   3.33903   1.24012   0.29025   0.74963   1.15150
                   0.00008   0.00008   0.00000   0.00000   0.00000   0.00000
                  --------  --------  --------  --------  --------  --------
 0 H  s               0.0       0.0      42.4      49.7      46.6       0.0
 0 H  pz              0.0       0.0       0.0       0.0       0.0      48.7
 0 H  dz2             0.0      34.3       1.4       0.0       0.0       0.0
 0 H  dyz            45.7       0.0       0.0       0.0       0.0       0.0
 0 H  dx2y2           0.0      11.4       4.1       0.1       0.1       0.0
 1 H  s               0.0       0.0      42.4      49.7      46.6       0.0
 1 H  pz              0.0       0.0       0.0       0.0       0.0      48.7
 1 H  dz2             0.0      34.3       1.4       0.0       0.0       0.0
 1 H  dyz            45.7       0.0       0.0       0.0       0.0       0.0
 1 H  dx2y2           0.0      11.4       4.1       0.1       0.1       0.0

------------------------------------------------------------------------------
                           ORCA POPULATION ANALYSIS
------------------------------------------------------------------------------
Input electron density              ... H2_0_1_CASSCF-2-16_def2-qzvpp.sp.scfp
BaseName (.gbw .S,...)              ... H2_0_1_CASSCF-2-16_def2-qzvpp.sp

                    ********************************
                    * MULLIKEN POPULATION ANALYSIS *
                    ********************************

-----------------------
MULLIKEN ATOMIC CHARGES
-----------------------
   0 H :   -0.000000
   1 H :    0.000000
Sum of atomic charges:   -0.0000000

--------------------------------
MULLIKEN REDUCED ORBITAL CHARGES
--------------------------------
  0 H s       :     0.982306  s :     0.982306
      pz      :     0.001988  p :     0.017325
      px      :     0.013349
      py      :     0.001988
      dz2     :     0.000053  d :     0.000350
      dxz     :     0.000087
      dyz     :     0.000038
      dx2y2   :     0.000085
      dxy     :     0.000087
      f0      :     0.000001  f :     0.000019
      f+1     :     0.000005
      f-1     :     0.000000
      f+2     :     0.000001
      f-2     :     0.000003
      f+3     :     0.000007
      f-3     :     0.000002
  1 H s       :     0.982306  s :     0.982306
      pz      :     0.001988  p :     0.017325
      px      :     0.013349
      py      :     0.001988
      dz2     :     0.000053  d :     0.000350
      dxz     :     0.000087
      dyz     :     0.000038
      dx2y2   :     0.000085
      dxy     :     0.000087
      f0      :     0.000001  f :     0.000019
      f+1     :     0.000005
      f-1     :     0.000000
      f+2     :     0.000001
      f-2     :     0.000003
      f+3     :     0.000007
      f-3     :     0.000002

------------------------
MULLIKEN OVERLAP CHARGES
------------------------
B(  0-H ,  1-H ) :   0.8977 


                     *******************************
                     * LOEWDIN POPULATION ANALYSIS *
                     *******************************

----------------------
LOEWDIN ATOMIC CHARGES
----------------------
   0 H :   -0.000000
   1 H :    0.000000

-------------------------------
LOEWDIN REDUCED ORBITAL CHARGES
-------------------------------
  0 H s       :     0.935806  s :     0.935806
      pz      :     0.001915  p :     0.056365
      px      :     0.052535
      py      :     0.001915
      dz2     :     0.001716  d :     0.007125
      dxz     :     0.000149
      dyz     :     0.000038
      dx2y2   :     0.005073
      dxy     :     0.000149
      f0      :     0.000005  f :     0.000703
      f+1     :     0.000254
      f-1     :     0.000001
      f+2     :     0.000008
      f-2     :     0.000003
      f+3     :     0.000421
      f-3     :     0.000012
  1 H s       :     0.935806  s :     0.935806
      pz      :     0.001915  p :     0.056365
      px      :     0.052535
      py      :     0.001915
      dz2     :     0.001716  d :     0.007125
      dxz     :     0.000149
      dyz     :     0.000038
      dx2y2   :     0.005073
      dxy     :     0.000149
      f0      :     0.000005  f :     0.000703
      f+1     :     0.000254
      f-1     :     0.000001
      f+2     :     0.000008
      f-2     :     0.000003
      f+3     :     0.000421
      f-3     :     0.000012

---------------------------------
LOEWDIN BOND ORDERS (THRESH 0.050000)
---------------------------------
B(  0-H ,  1-H ) :   0.9749 


                      *****************************
                      * MAYER POPULATION ANALYSIS *
                      *****************************

  NA   - Mulliken gross atomic population
  ZA   - Total nuclear charge
  QA   - Mulliken gross atomic charge
  VA   - Mayer's total valence
  BVA  - Mayer's bonded valence
  FA   - Mayer's free valence

  ATOM       NA         ZA         QA         VA         BVA        FA
  0 H      1.0000     1.0000    -0.0000     1.0221     0.9723     0.0498
  1 H      1.0000     1.0000     0.0000     1.0221     0.9723     0.0498

  Mayer bond orders larger than 0.100000
B(  0-H ,  1-H ) :   0.9723 


-------------------------------------------------------------
 Forming the transition density       ... done in 0.002324 sec
-------------------------------------------------------------



==========================================
CASSCF UV, CD spectra and dipole moments
==========================================
-------------------
ABSORPTION SPECTRUM
-------------------

Center of mass           = (  0.4736,  0.0000,  0.0000)
Nuclear contribution to the dipole moment =     0.000000,    0.000000,    0.000000 au

Calculating the dipole integrals                  ... done
Transforming integrals                            ... done
Calculating the Linear Momentum integrals         ... done
Transforming integrals                            ... done
Calculating the Angular Momentum integrals        ... done
Transforming integrals                            ... done

Ground state mult:    1
Ground state block:   0
Ground state root:    0


------------------------------------------------------------------------------
                                 DIPOLE MOMENTS
------------------------------------------------------------------------------
  Root  Block           TX        TY        TZ           |T|
                      (Debye)   (Debye)   (Debye)      (Debye)
------------------------------------------------------------------------------
    0    0           -0.00000   0.00000  -0.00000      0.00000

--------------
CASSCF TIMINGS
--------------

Total time                       ...        4.2 sec
Sum of individual times          ...        3.9 sec ( 94.1%)

Calculation of AO operators
   F(Core) operator              ...        0.1 sec (  1.3%)
   G(Act) operator               ...        0.9 sec ( 21.4%)
   J(AO) operators               ...        0.0 sec (  0.0%)
Calculation of MO transformed quantities
   J(MO) operators               ...        2.3 sec ( 54.9%)
   (pq|rs) integrals             ...        0.0 sec (  0.0%)
   AO->MO one electron integrals ...        0.0 sec (  0.4%)
Configuration interaction steps
   CI-setup phase                ...        0.0 sec (  0.0%)
   CI-solution phase             ...        0.4 sec (  9.5%)
   Generation of densities       ...        0.1 sec (  3.1%)
Orbital improvement steps
   Orbital gradient              ...        0.1 sec (  3.1%)
   O(1) converger                ...        0.0 sec (  0.1%)
Properties                       ...        0.0 sec (  0.2%)
   SOC integral calculation      ...        0.0 sec (  0.0%)
   SSC RMEs (incl. integrals)    ...        0.0 sec (  0.0%)
   SOC RMEs                      ...        0.0 sec (  0.0%)

-------------------------   --------------------
FINAL SINGLE POINT ENERGY        -1.103452575062
-------------------------   --------------------

Storing actual gbw-file in H2_0_1_CASSCF-2-16_def2-qzvpp.sp.001.gbw ... done

                            ***************************************
                            *     ORCA property calculations      *
                            ***************************************

                                    ---------------------
                                    Active property flags
                                    ---------------------
   (+) Dipole Moment


------------------------------------------------------------------------------
                       ORCA ELECTRIC PROPERTIES CALCULATION
------------------------------------------------------------------------------

Dipole Moment Calculation                       ... on
Quadrupole Moment Calculation                   ... off
Polarizability Calculation                      ... off
GBWName                                         ... H2_0_1_CASSCF-2-16_def2-qzvpp.sp.gbw
Electron density file                           ... H2_0_1_CASSCF-2-16_def2-qzvpp.sp.scfp
The origin for moment calculation is the CENTER OF MASS  = ( 0.473553,  0.000000  0.000000)

-------------
DIPOLE MOMENT
-------------
                                X             Y             Z
Electronic contribution:     -0.00000       0.00000      -0.00000
Nuclear contribution   :      0.00000       0.00000       0.00000
                        -----------------------------------------
Total Dipole Moment    :     -0.00000       0.00000      -0.00000
                        -----------------------------------------
Magnitude (a.u.)       :      0.00000
Magnitude (Debye)      :      0.00000



--------------------
Rotational spectrum 
--------------------
 
Rotational constants in cm-1:     0.000000   133.157724   133.157724 
Rotational constants in MHz :     0.000000 3991968.149099 3991968.149099 

 Dipole components along the rotational axes: 
x,y,z [a.u.] :    -0.000000     0.000000    -0.000000 
x,y,z [Debye]:    -0.000000     0.000000    -0.000000 

 

         *************************************************************
                                TRAJECTORY STEP   2
                RHH  :   0.60842987
         *************************************************************
---------------------------------
CARTESIAN COORDINATES (ANGSTROEM)
---------------------------------
  H      0.000000    0.000000    0.000000
  H      0.608430    0.000000    0.000000

----------------------------
CARTESIAN COORDINATES (A.U.)
----------------------------
  NO LB      ZA    FRAG     MASS         X           Y           Z
   0 H     1.0000    0     1.008    0.000000    0.000000    0.000000
   1 H     1.0000    0     1.008    1.149766    0.000000    0.000000

--------------------------------
INTERNAL COORDINATES (ANGSTROEM)
--------------------------------
 H      0   0   0     0.000000000000     0.00000000     0.00000000
 H      1   0   0     0.608429869077     0.00000000     0.00000000

---------------------------
INTERNAL COORDINATES (A.U.)
---------------------------
 H      0   0   0     0.000000000000     0.00000000     0.00000000
 H      1   0   0     1.149765824252     0.00000000     0.00000000


Diagonalization of the overlap matrix:
Smallest eigenvalue                        ... 8.441e-05
Time for diagonalization                   ...    0.002 sec
Threshold for overlap eigenvalues          ... 1.000e-08
Number of eigenvalues below threshold      ... 0
Time for construction of square roots      ...    0.001 sec
Total time needed                          ...    0.003 sec



 ... the calculation is a CASSCF calculation -I'm leaving here GOOD LUCK!!!

-------------------------------------------------------------------------------
                              ORCA-CASSCF
-------------------------------------------------------------------------------

Setting up the integral package       ... done
Building the CAS space                ... done (136 configurations for Mult=1)
----------------
GENERAL CI SETUP
----------------

Checking configurations                         ... done
Determining NSOMO,NDOMO and NVMO                ... done
Building up the tree                            ... done
Building N-1 electron tree                      ... done
Building RI configuration space                 ... done
Analyzing the RI configuration space            ... done
Determining NDOMO,NSOMO,NVMO for RI space       ... done
Determination of address arrays                 ... done
Looking for max. no of open shells              ... done
Setting up coupling coefficient container       ... Memory for address arrays  		      ... done
Make address arrays			      ... done
Memory for buffers 			      ... done
Setting up spin-function prototypes	      ... (MAXOPEN=2) 0 2 4 done
Trivial cases - DOMO's			      ... done (  0.0 MB)
Number of open shells			    ...  0
domo->virtual excitations			... done (  0.0 MB)
domo->somo excitations				... done (  0.0 MB)
somo->virtual excitations			... done (  0.0 MB)
somo->somo excitations				... done (  0.0 MB)
Number of open shells			    ...  2
domo->virtual excitations			... done (  0.0 MB)
domo->somo excitations				... done (  0.0 MB)
somo->virtual excitations			... done (  0.0 MB)
somo->somo excitations				... done (  0.0 MB)
Coupling container construction done
done
Now recording sub-block dimensions              ... done
Memory used for TGeneralCI arrays =     0.0 MB
  Original space  =     0.0
  RI       space  =     0.0
  Address arrays  =     0.0
  Coupling coeffs =     0.0
Multiplicity                          ...       1
# of electrons                        ...       2
# of orbitals                         ...      16
# of roots requested                  ...       1
Configuration space:
# of configurations                   ...     136
# of CSF's                            ...     136
# of rejected configurations          ...       0
Min. # of SOMOs                       ...       0
Max. # of SOMOs                       ...       2
Max. # of DOMOs                       ...       1
Max. # of VMOs                        ...      15
RI Configuration space:
# of configurations                   ...     136
# of CSF's                            ...     136
# of rejected configurations          ...       0
Min. # of SOMOs                       ...       0
Max. # of SOMOs                       ...       2
Max. # of DOMOs                       ...       1
Max. # of VMOs                        ...      15
(N-1) Electron Configuration space:
# of configurations                   ...      16
CSF dimensions:
      0 SOMOs give     1 CSFs
      2 SOMOs give     1 CSFs


SYSTEM-SPECIFIC SETTINGS:
Number of active electrons          ...    2
Number of active orbitals           ...   16
Total number of electrons           ...    2
Total number of orbitals            ...   60

Determined orbital ranges:
   Internal       0 -   -1 (   0 orbitals)
   Active         0 -   15 (  16 orbitals)
   External      16 -   59 (  44 orbitals)
Number of rotation parameters      ...    704

CI-STEP:
CI strategy                         ... General CI
Number of multiplicity blocks       ...    1
BLOCK  1 WEIGHT=   1.0000
  Multiplicity                      ...    1
  #(Configurations)                 ...  136
  #(CSFs)                           ...  136
  #(Roots)                          ...    1
    ROOT=0 WEIGHT=    1.000000

  PrintLevel                        ...    1
  N(GuessMat)                       ...       512
  MaxDim(CI)                        ...        10
  MaxIter(CI)                       ...        64
  Energy Tolerance CI               ...  2.50e-09
  Residual Tolerance CI             ...  2.50e-09
  Shift(CI)                         ...  1.00e-04

INTEGRAL-TRANSFORMATION-STEP:
  Algorithm                         ... EXACT

ORBITAL-IMPROVEMENT-STEP:
  Algorithm                         ... SuperCI(PT)
  Default Parametrization           ... CAYLEY
  Act-Act rotations                 ... depends on algorithm used

  Note: SuperCI(PT) will ignore FreezeIE, FreezeAct and FreezeGrad. In general Default settings are encouraged.
        In conjunction with ShiftUp, ShiftDn or GradScaling the performance of SuperCI(PT) is less optimal.  

  MaxRot                            ... 2.00e-01 
  Max. no of vectors (DIIS)         ... 15
  DThresh (cut-off) metric          ... 1.00e-06
  Switch step at gradient           ...  3.00e-02 
  Switch step at iteration          ...        50   
  Switch step to                    ... SuperCI(PT)    

SCF-SETTINGS:
  Incremental                       ... on
  RIJCOSX approximation             ... off
  RI-JK approximation               ... off
  AO integral handling              ... DIRECT
  Integral Neglect Thresh           ...  2.50e-11
  Primitive cutoff TCut             ...  2.50e-12
  Energy convergence tolerance      ...  2.50e-08
  Orbital gradient convergence      ...  2.50e-04
  Max. number of iterations         ...        75  


FINAL ORBITALS:
  Active   Orbitals                 ... natural 
  Internal Orbitals                 ... canonical 
  External Orbitals                 ... canonical 

------------------
CAS-SCF ITERATIONS
------------------


MACRO-ITERATION   1: 
   --- Inactive Energy E0 = 0.86974232 Eh
CI-ITERATION   0: 
    -1.156707517   0.000000000000 (    0.00)
   CI-PROBLEM SOLVED
   DENSITIES MADE

                 <<<<<<<<<<<<<<<<<<INITIAL CI STATE CHECK>>>>>>>>>>>>>>>>>>

BLOCK  1 MULT= 1 NROOTS= 1 
ROOT   0:  E=      -1.1567075166 Eh
      0.98376 [     0]: 2000000000000000
      0.00660 [    16]: 0200000000000000
      0.00302 [    31]: 0020000000000000

                 <<<<<<<<<<<<<<<<<<INITIAL CI STATE CHECK>>>>>>>>>>>>>>>>>>

   E(CAS)=    -1.156707517 Eh DE=     0.000000000
   --- Energy gap subspaces: Ext-Act = -3.516   Act-Int = 0.600
   N(occ)=  1.96952 0.01320 0.00783 0.00415 0.00415 0.00015 0.00036 0.00012 0.00012 0.00009 0.00008 0.00008 0.00008 0.00008 0.00002 0.00000
   ||g|| =      0.105818563 Max(G)=     0.097481114 Rot=59,0
   --- Orbital Update [SuperCI(PT)]
   --- Canonicalize Internal Space
   --- Canonicalize External Space
   --- SX_PT (Skipped TA=1 IT=0): ||X|| =      0.569605159 Max(X)(20,14) =     -0.458335319 
   --- SFit(Active Orbitals)

MACRO-ITERATION   2: 
   --- Inactive Energy E0 = 0.86974232 Eh
CI-ITERATION   0: 
    -1.156965162   0.000000000000 (    0.00)
   CI-PROBLEM SOLVED
   DENSITIES MADE
   E(CAS)=    -1.156965162 Eh DE=    -0.000257645
   --- Energy gap subspaces: Ext-Act = -3.306   Act-Int = 0.600
   N(occ)=  1.96904 0.01334 0.00806 0.00417 0.00417 0.00016 0.00037 0.00012 0.00012 0.00010 0.00009 0.00009 0.00008 0.00008 0.00003 0.00000
   ||g|| =      0.016921699 Max(G)=    -0.011723174 Rot=36,0
   --- Orbital Update [SuperCI(PT)]
   --- Canonicalize Internal Space
   --- Canonicalize External Space
   --- SX_PT (Skipped TA=1 IT=0): ||X|| =      0.304333928 Max(X)(20,14) =      0.255289446 
   --- SFit(Active Orbitals)

MACRO-ITERATION   3: 
   --- Inactive Energy E0 = 0.86974232 Eh
CI-ITERATION   0: 
    -1.157005702   0.000000000000 (    0.00)
   CI-PROBLEM SOLVED
   DENSITIES MADE
   E(CAS)=    -1.157005702 Eh DE=    -0.000040541
   --- Energy gap subspaces: Ext-Act = -4.263   Act-Int = 0.600
[...]
  AO integral handling              ... DIRECT
  Integral Neglect Thresh           ...  2.50e-11
  Primitive cutoff TCut             ...  2.50e-12
  Energy convergence tolerance      ...  2.50e-08
  Orbital gradient convergence      ...  2.50e-04
  Max. number of iterations         ...        75  


FINAL ORBITALS:
  Active   Orbitals                 ... natural 
  Internal Orbitals                 ... canonical 
  External Orbitals                 ... canonical 

------------------
CAS-SCF ITERATIONS
------------------


MACRO-ITERATION   1: 
   --- Inactive Energy E0 = 0.02652169 Eh
CI-ITERATION   0: 
    -0.999966586   0.000000000000 (    0.00)
   CI-PROBLEM SOLVED
   DENSITIES MADE

                 <<<<<<<<<<<<<<<<<<INITIAL CI STATE CHECK>>>>>>>>>>>>>>>>>>

BLOCK  1 MULT= 1 NROOTS= 1 
ROOT   0:  E=      -0.9999665865 Eh
      0.50002 [     0]: 2000000000000000
      0.49998 [    16]: 0200000000000000

                 <<<<<<<<<<<<<<<<<<INITIAL CI STATE CHECK>>>>>>>>>>>>>>>>>>

   E(CAS)=    -0.999966586 Eh DE=     0.000000000
   --- Energy gap subspaces: Ext-Act = -2.221   Act-Int = 0.600
   N(occ)=  1.00004 0.99996 0.00000 0.00000 0.00000 0.00000 0.00000 0.00000 0.00000 0.00000 0.00000 0.00000 0.00000 0.00000 0.00000 0.00000
   ||g|| =      0.000217190 Max(G)=    -0.000133412 Rot=16,1
                     ---- THE CAS-SCF GRADIENT HAS CONVERGED ----
                            --- FINALIZING ORBITALS ---
                    ---- DOING ONE FINAL ITERATION FOR PRINTING ----
   --- Forming Natural Orbitals
   --- Canonicalize Internal Space
   --- Canonicalize External Space

MACRO-ITERATION   2: 
   --- Inactive Energy E0 = 0.02652169 Eh
   --- All densities will be recomputed
CI-ITERATION   0: 
    -0.999966586   0.000000000000 (    0.00)
   CI-PROBLEM SOLVED
   DENSITIES MADE
   E(CAS)=    -0.999966586 Eh DE=     0.000000000
   --- Energy gap subspaces: Ext-Act = -2.242   Act-Int = 0.600
   N(occ)=  1.00004 0.99996 0.00000 0.00000 0.00000 0.00000 0.00000 0.00000 0.00000 0.00000 0.00000 0.00000 0.00000 0.00000 0.00000 0.00000
   ||g|| =      0.000217190 Max(G)=     0.000133412 Rot=16,1
--------------
CASSCF RESULTS
--------------

Final CASSCF energy       : -0.999966586 Eh     -27.2105 eV


---------------------------------------------
CAS-SCF STATES FOR BLOCK  1 MULT= 1 NROOTS= 1
---------------------------------------------

ROOT   0:  E=      -0.9999665865 Eh
      0.50002 [     0]: 2000000000000000
      0.49998 [    16]: 0200000000000000


--------------
DENSITY MATRIX
--------------

                  0          1          2          3          4          5    
      0       1.000042   0.000000   0.000000  -0.000000  -0.000000   0.000000
      1       0.000000   0.999958  -0.000000   0.000000   0.000000   0.000000
      2       0.000000  -0.000000   0.000000  -0.000000  -0.000000   0.000000
      3      -0.000000   0.000000  -0.000000   0.000000  -0.000000   0.000000
      4      -0.000000   0.000000  -0.000000  -0.000000   0.000000   0.000000
      5       0.000000   0.000000   0.000000   0.000000   0.000000   0.000000
      6       0.000000   0.000000  -0.000000  -0.000000  -0.000000   0.000000
      7       0.000000   0.000000   0.000000  -0.000000  -0.000000  -0.000000
      8      -0.000000  -0.000000  -0.000000  -0.000000  -0.000000  -0.000000
      9       0.000000   0.000000  -0.000000   0.000000  -0.000000   0.000000
     10      -0.000000   0.000000   0.000000   0.000000   0.000000  -0.000000
     11       0.000000  -0.000000  -0.000000   0.000000   0.000000   0.000000
     12      -0.000000  -0.000000  -0.000000  -0.000000  -0.000000  -0.000000
     13      -0.000000  -0.000000  -0.000000  -0.000000   0.000000  -0.000000
     14       0.000000   0.000000   0.000000   0.000000   0.000000  -0.000000
     15       0.000000   0.000000   0.000000  -0.000000   0.000000   0.000000
                  6          7          8          9         10         11    
      0       0.000000   0.000000  -0.000000   0.000000  -0.000000   0.000000
      1       0.000000   0.000000  -0.000000   0.000000   0.000000  -0.000000
      2      -0.000000   0.000000  -0.000000  -0.000000   0.000000  -0.000000
      3      -0.000000  -0.000000  -0.000000   0.000000   0.000000   0.000000
      4      -0.000000  -0.000000  -0.000000  -0.000000   0.000000   0.000000
      5       0.000000  -0.000000  -0.000000   0.000000  -0.000000   0.000000
      6       0.000000  -0.000000   0.000000  -0.000000   0.000000   0.000000
      7      -0.000000   0.000000   0.000000   0.000000   0.000000  -0.000000
      8       0.000000   0.000000   0.000000   0.000000   0.000000  -0.000000
      9      -0.000000   0.000000   0.000000   0.000000  -0.000000  -0.000000
     10       0.000000   0.000000   0.000000  -0.000000   0.000000   0.000000
     11       0.000000  -0.000000  -0.000000  -0.000000   0.000000   0.000000
     12       0.000000  -0.000000   0.000000  -0.000000  -0.000000  -0.000000
     13       0.000000  -0.000000  -0.000000  -0.000000  -0.000000  -0.000000
     14      -0.000000   0.000000   0.000000   0.000000   0.000000  -0.000000
     15      -0.000000  -0.000000   0.000000  -0.000000   0.000000  -0.000000
                  12         13         14         15    
      0      -0.000000  -0.000000   0.000000   0.000000
      1      -0.000000  -0.000000   0.000000   0.000000
      2      -0.000000  -0.000000   0.000000   0.000000
      3      -0.000000  -0.000000   0.000000  -0.000000
      4      -0.000000   0.000000   0.000000   0.000000
      5      -0.000000  -0.000000  -0.000000   0.000000
      6       0.000000   0.000000  -0.000000  -0.000000
      7      -0.000000  -0.000000   0.000000  -0.000000
      8       0.000000  -0.000000   0.000000   0.000000
      9      -0.000000  -0.000000   0.000000  -0.000000
     10      -0.000000  -0.000000   0.000000   0.000000
     11      -0.000000  -0.000000  -0.000000  -0.000000
     12       0.000000  -0.000000   0.000000  -0.000000
     13      -0.000000   0.000000  -0.000000  -0.000000
     14       0.000000  -0.000000   0.000000   0.000000
     15      -0.000000  -0.000000   0.000000   0.000000
Trace of the electron density:  2.000000

-----------------
ENERGY COMPONENTS
-----------------

One electron energy          :     -1.053009940 Eh         -28.6539 eV
Two electron energy          :      0.026521667 Eh           0.7217 eV
Nuclear repulsion energy     :      0.026521686 Eh           0.7217 eV
                               ----------------
                                   -0.999966586

Kinetic energy               :      1.000007105 Eh          27.2116 eV
Potential energy             :     -1.999973692 Eh         -54.4221 eV
Virial ratio                 :     -1.999959482 
                               ----------------
                                   -0.999966586

Core energy                  :      0.026521686 Eh        0.7217 eV


----------------------------
LOEWDIN REDUCED ACTIVE MOs  
----------------------------

                      0         1         2         3         4         5   
                  -0.18748  -0.18746   0.57652   0.57607   0.57951   0.57951
                   1.00004   0.99996   0.00000   0.00000   0.00000   0.00000
                  --------  --------  --------  --------  --------  --------
 0 H  s              50.0      50.0       0.5       0.1       0.0       0.0
 0 H  pz              0.0       0.0       0.0       0.0      49.7       0.2
 0 H  px              0.0       0.0      49.4      49.8       0.0       0.0
 0 H  py              0.0       0.0       0.0       0.0       0.2      49.7
 1 H  s              50.0      50.0       0.5       0.1       0.0       0.0
 1 H  pz              0.0       0.0       0.0       0.0      49.7       0.2
 1 H  px              0.0       0.0      49.4      49.8       0.0       0.0
 1 H  py              0.0       0.0       0.0       0.0       0.2      49.7

                      6         7         8         9        10        11   
                   1.19921   1.19921   1.17104   0.74512   2.29196   2.29196
                   0.00000   0.00000   0.00000   0.00000   0.00000   0.00000
                  --------  --------  --------  --------  --------  --------
 0 H  s               0.0       0.0      47.7      49.7       0.0       0.0
 0 H  pz             46.4       0.2       0.0       0.0       0.0       0.0
 0 H  py              0.2      46.4       0.0       0.0       0.0       0.0
 0 H  dz2             0.0       0.0       0.2       0.0       6.2      29.9
 0 H  dyz             0.0       0.0       0.0       0.0      39.9       8.3
 0 H  dx2y2           0.0       0.0       0.7       0.0       2.1      10.0
 1 H  s               0.0       0.0      47.7      49.7       0.0       0.0
 1 H  pz             46.4       0.2       0.0       0.0       0.0       0.0
 1 H  py              0.2      46.4       0.0       0.0       0.0       0.0
 1 H  dz2             0.0       0.0       0.2       0.0       6.2      29.9
 1 H  dyz             0.0       0.0       0.0       0.0      39.9       8.3
 1 H  dx2y2           0.0       0.0       0.7       0.0       2.1      10.0

                     12        13        14        15        16        17   
                   2.41590   2.77157   2.38373   2.38373   0.53003   0.82501
                   0.00000   0.00000   0.00000   0.00000   0.00000   0.00000
                  --------  --------  --------  --------  --------  --------
 0 H  s               1.0       1.2       0.0       0.0      49.4      49.3
 0 H  pz              0.0       0.0       0.0       5.7       0.0       0.0
 0 H  px             17.0       9.6       0.0       0.0       0.5       0.2
 0 H  py              0.0       0.0       5.7       0.0       0.0       0.0
 0 H  dz2             7.5       9.2       0.0       0.0       0.0       0.1
 0 H  dxz             0.0       0.0       0.2      41.6       0.0       0.0
 0 H  dx2y2          22.4      27.5       0.0       0.0       0.0       0.4
 0 H  dxy             0.0       0.0      41.6       0.2       0.0       0.0
 1 H  s               1.0       1.2       0.0       0.0      49.4      49.3
 1 H  pz              0.0       0.0       0.0       5.7       0.0       0.0
 1 H  px             17.0       9.7       0.0       0.0       0.5       0.2
 1 H  py              0.0       0.0       5.7       0.0       0.0       0.0
 1 H  dz2             7.5       9.2       0.0       0.0       0.0       0.1
 1 H  dxz             0.0       0.0       0.2      41.6       0.0       0.0
 1 H  dx2y2          22.4      27.5       0.0       0.0       0.0       0.4
 1 H  dxy             0.0       0.0      41.6       0.2       0.0       0.0


-------------------------------------------------------------
 Forming the transition density       ... done in 0.002361 sec
-------------------------------------------------------------



==========================================
CASSCF UV, CD spectra and dipole moments
==========================================
-------------------
ABSORPTION SPECTRUM
-------------------

Center of mass           = ( 18.8525,  0.0000,  0.0000)
Nuclear contribution to the dipole moment =     0.000000,    0.000000,    0.000000 au

Calculating the dipole integrals                  ... done
Transforming integrals                            ... done
Calculating the Linear Momentum integrals         ... done
Transforming integrals                            ... done
Calculating the Angular Momentum integrals        ... done
Transforming integrals                            ... done

Ground state mult:    1
Ground state block:   0
Ground state root:    0


------------------------------------------------------------------------------
                                 DIPOLE MOMENTS
------------------------------------------------------------------------------
  Root  Block           TX        TY        TZ           |T|
                      (Debye)   (Debye)   (Debye)      (Debye)
------------------------------------------------------------------------------
    0    0            0.00000   0.00000  -0.00000      0.00000

--------------
CASSCF TIMINGS
--------------

Total time                       ...        0.5 sec
Sum of individual times          ...        0.4 sec ( 75.6%)

Calculation of AO operators
   F(Core) operator              ...        0.0 sec (  0.8%)
   G(Act) operator               ...        0.0 sec (  5.2%)
   J(AO) operators               ...        0.0 sec (  0.0%)
Calculation of MO transformed quantities
   J(MO) operators               ...        0.2 sec ( 40.2%)
   (pq|rs) integrals             ...        0.0 sec (  0.0%)
   AO->MO one electron integrals ...        0.0 sec (  0.1%)
Configuration interaction steps
   CI-setup phase                ...        0.0 sec (  0.3%)
   CI-solution phase             ...        0.1 sec ( 15.7%)
   Generation of densities       ...        0.0 sec (  7.0%)
Orbital improvement steps
   Orbital gradient              ...        0.0 sec (  5.0%)
Properties                       ...        0.0 sec (  1.4%)
   SOC integral calculation      ...        0.0 sec (  0.0%)
   SSC RMEs (incl. integrals)    ...        0.0 sec (  0.0%)
   SOC RMEs                      ...        0.0 sec (  0.0%)

-------------------------   --------------------
FINAL SINGLE POINT ENERGY        -0.999966586477
-------------------------   --------------------

Storing actual gbw-file in H2_0_1_CASSCF-2-16_def2-qzvpp.sp.020.gbw ... done

                            ***************************************
                            *     ORCA property calculations      *
                            ***************************************

                                    ---------------------
                                    Active property flags
                                    ---------------------
   (+) Dipole Moment


------------------------------------------------------------------------------
                       ORCA ELECTRIC PROPERTIES CALCULATION
------------------------------------------------------------------------------

Dipole Moment Calculation                       ... on
Quadrupole Moment Calculation                   ... off
Polarizability Calculation                      ... off
GBWName                                         ... H2_0_1_CASSCF-2-16_def2-qzvpp.sp.gbw
Electron density file                           ... H2_0_1_CASSCF-2-16_def2-qzvpp.sp.scfp
The origin for moment calculation is the CENTER OF MASS  = (18.852497,  0.000000  0.000000)

-------------
DIPOLE MOMENT
-------------
                                X             Y             Z
Electronic contribution:      0.00000       0.00000      -0.00000
Nuclear contribution   :     -0.00000       0.00000       0.00000
                        -----------------------------------------
Total Dipole Moment    :      0.00000       0.00000      -0.00000
                        -----------------------------------------
Magnitude (a.u.)       :      0.00000
Magnitude (Debye)      :      0.00000



--------------------
Rotational spectrum 
--------------------
 
Rotational constants in cm-1:     0.000000     0.084017     0.084017 
Rotational constants in MHz :     0.000000  2518.761623  2518.761623 

 Dipole components along the rotational axes: 
x,y,z [a.u.] :     0.000000     0.000000    -0.000000 
x,y,z [Debye]:     0.000000     0.000000    -0.000000 

 
                              **** TRAJECTORY DONE ***

                         SUMMARY OF THE CALCULATED SURFACE

------------------
TRAJECTORY RESULTS
------------------

Column   1: RHH

The Calculated Surface using the 'Actual Energy'
   0.50118723  -1.10345258
   0.60842987  -1.15701275
   0.73861998  -1.17302617
   0.89666781  -1.16151602
   1.08853427  -1.13182374
   1.32145577  -1.09308516
   1.60421716  -1.05440281
   1.94748304  -1.02447269
   2.36419999  -1.00788536
   2.87008485  -1.00174101
   3.48421754  -1.00024318
   4.22976062  -1.00000043
   5.13483291  -0.99997174
   6.23357002  -0.99996787
   7.56741181  -0.99996696
   9.18666532  -0.99996670
  11.15240214  -0.99996662
  13.53876180  -0.99996660
  16.43574799  -0.99996659
  19.95262315  -0.99996659

                        *******************************
                        *   FIT OF THE ACT-ENERGY PES *
                        *******************************
-------------------------------
POTENTIAL ENERGY SURFACE =   0
-------------------------------

Minimum found after 25 iterations
Equilibrium distance and its energy from the interpolated PES:
  Re      =   0.72613 Angstroem  (  1.37218 Bohr)
  E(Re)   =    -1.173113 Eh 
  dE/dR   = 1.565e-09 (-1.142e-01 CHEB)
  d2E/dR2 =    0.344285 (   0.795091 CHEB) (  -0.013032 NUM)
  d3E/dR3 =   -4.136391 (  -2.989214 CHEB)

Spectroscopic constants:
  we =    4265.6 cm**-1 (based on SPLINE)
  we =    6482.3 cm**-1 (based on CHEB)
  we =      -nan cm**-1 (based on NUM)

Performing Morse fit ...
Morse-Fit Results:
 Te(adiabatic)   =    -357.3 cm**-1         = -0.044 eV
 d2E/dR**2 (Morse)=      0.410021758 
 d3E/dR**3 (Morse)=     -1.329251201 
 d4E/dR**4 (Morse)=      3.351681562 
 E0               =     -1.174740934 Eh  RMS=1.36e-06
 Re               =   0.74332 Angstroem      =  1.40467 Bohr RMS=4.82e-06)
 De(Morse)        =   4.77716 eV             =  38530.4 cm**-1 RMS=1.68e-06
 D0(Morse)        =   4.48858 eV
 beta             =   1.08063 au          RMS=1.01e-05
 we               =   4655.0 cm**-1
 wexe             =    140.5 cm**-1
 Displacement   =    0.0172 Angstroem      =  0.03249 Bohr

The Calculated Surface using the SCF energy
   0.50118723  -1.10345258
   0.60842987  -1.15701275
   0.73861998  -1.17302617
   0.89666781  -1.16151602
   1.08853427  -1.13182374
   1.32145577  -1.09308516
   1.60421716  -1.05440281
   1.94748304  -1.02447269
   2.36419999  -1.00788536
   2.87008485  -1.00174101
   3.48421754  -1.00024318
   4.22976062  -1.00000043
   5.13483291  -0.99997174
   6.23357002  -0.99996787
   7.56741181  -0.99996696
   9.18666532  -0.99996670
  11.15240214  -0.99996662
  13.53876180  -0.99996660
  16.43574799  -0.99996659
  19.95262315  -0.99996659

                        *******************************
                        *       FIT OF THE SCF PES    *
                        *******************************
-------------------------------
POTENTIAL ENERGY SURFACE =   0
-------------------------------

Minimum found after 25 iterations
Equilibrium distance and its energy from the interpolated PES:
  Re      =   0.72613 Angstroem  (  1.37218 Bohr)
  E(Re)   =    -1.173113 Eh 
  dE/dR   = 1.565e-09 (-1.142e-01 CHEB)
  d2E/dR2 =    0.344285 (   0.795091 CHEB) (  -0.013032 NUM)
  d3E/dR3 =   -4.136391 (  -2.989214 CHEB)

Spectroscopic constants:
  we =    4265.6 cm**-1 (based on SPLINE)
  we =    6482.3 cm**-1 (based on CHEB)
  we =      -nan cm**-1 (based on NUM)

Performing Morse fit ...
Morse-Fit Results:
 Te(adiabatic)   =    -357.3 cm**-1         = -0.044 eV
 d2E/dR**2 (Morse)=      0.410021758 
 d3E/dR**3 (Morse)=     -1.329251201 
 d4E/dR**4 (Morse)=      3.351681562 
 E0               =     -1.174740934 Eh  RMS=1.36e-06
 Re               =   0.74332 Angstroem      =  1.40467 Bohr RMS=4.82e-06)
 De(Morse)        =   4.77716 eV             =  38530.4 cm**-1 RMS=1.68e-06
 D0(Morse)        =   4.48858 eV
 beta             =   1.08063 au          RMS=1.01e-05
 we               =   4655.0 cm**-1
 wexe             =    140.5 cm**-1
 Displacement   =    0.0172 Angstroem      =  0.03249 Bohr


Timings for individual modules:

Sum of individual times         ...      107.815 sec (=   1.797 min)
GTO integral calculation        ...        5.108 sec (=   0.085 min)   4.7 %
SCF iterations                  ...        1.001 sec (=   0.017 min)   0.9 %
CASSCF iterations               ...      101.706 sec (=   1.695 min)  94.3 %
                             ****ORCA TERMINATED NORMALLY****
TOTAL RUN TIME: 0 days 0 hours 1 minutes 50 seconds 91 msec
