
                                 *****************
                                 * O   R   C   A *
                                 *****************

           --- An Ab Initio, DFT and Semiempirical electronic structure package ---

                  #######################################################
                  #                        -***-                        #
                  #          Department of theory and spectroscopy      #
                  #               Directorship: Frank Neese             #
                  #        Max Planck Institute fuer Kohlenforschung    #
                  #                Kaiser Wilhelm Platz 1               #
                  #                 D-45470 Muelheim/Ruhr               #
                  #                      Germany                        #
                  #                                                     #
                  #                  All rights reserved                #
                  #                        -***-                        #
                  #######################################################


                         Program Version 4.2.0 -  RELEASE  -


 With contributions from (in alphabetic order):
   Daniel Aravena         : Magnetic Suceptibility
   Michael Atanasov       : Ab Initio Ligand Field Theory (pilot matlab implementation)
   Alexander A. Auer      : GIAO ZORA, VPT2
   Ute Becker             : Parallelization
   Giovanni Bistoni       : ED, misc. LED, open-shell LED, HFLED
   Martin Brehm           : Molecular dynamics
   Dmytro Bykov           : SCF Hessian
   Vijay G. Chilkuri      : MRCI spin determinant printing, contributions to CSF-ICE
   Dipayan Datta          : RHF DLPNO-CCSD density
   Achintya Kumar Dutta   : EOM-CC, STEOM-CC
   Dmitry Ganyushin       : Spin-Orbit,Spin-Spin,Magnetic field MRCI
   Miquel Garcia          : C-PCM Hessian, Gaussian charge scheme
   Yang Guo               : DLPNO-NEVPT2, CIM, IAO-localization
   Andreas Hansen         : Spin unrestricted coupled pair/coupled cluster methods
   Benjamin Helmich-Paris : CASSCF linear response (MC-RPA)
   Lee Huntington         : MR-EOM, pCC
   Robert Izsak           : Overlap fitted RIJCOSX, COSX-SCS-MP3, EOM
   Christian Kollmar      : KDIIS, OOCD, Brueckner-CCSD(T), CCSD density
   Simone Kossmann        : Meta GGA functionals, TD-DFT gradient, OOMP2, MP2 Hessian
   Martin Krupicka        : AUTO-CI
   Lucas Lang             : DCDCAS
   Dagmar Lenk            : GEPOL surface, SMD
   Dimitrios Liakos       : Extrapolation schemes; Compound Job, initial MDCI parallelization
   Dimitrios Manganas     : Further ROCIS development; embedding schemes
   Dimitrios Pantazis     : SARC Basis sets
   Taras Petrenko         : DFT Hessian,TD-DFT gradient, ASA, ECA, R-Raman, ABS, FL, XAS/XES, NRVS
   Peter Pinski           : DLPNO-MP2, DLPNO-MP2 Gradient
   Christoph Reimann      : Effective Core Potentials
   Marius Retegan         : Local ZFS, SOC
   Christoph Riplinger    : Optimizer, TS searches, QM/MM, DLPNO-CCSD(T), (RO)-DLPNO pert. Triples
   Tobias Risthaus        : Range-separated hybrids, TD-DFT gradient, RPA, STAB
   Michael Roemelt        : Original ROCIS implementation
   Masaaki Saitow         : Open-shell DLPNO-CCSD energy and density
   Barbara Sandhoefer     : DKH picture change effects
   Avijit Sen             : IP-ROCIS
   Kantharuban Sivalingam : CASSCF convergence, NEVPT2, FIC-MRCI
   Bernardo de Souza      : ESD, SOC TD-DFT
   Georgi Stoychev        : AutoAux, RI-MP2 NMR
   Willem Van den Heuvel  : Paramagnetic NMR
   Boris Wezisla          : Elementary symmetry handling
   Frank Wennmohs         : Technical directorship


 We gratefully acknowledge several colleagues who have allowed us to
 interface, adapt or use parts of their codes:
   Stefan Grimme, W. Hujo, H. Kruse,             : VdW corrections, initial TS optimization,
                  C. Bannwarth                     DFT functionals, gCP, sTDA/sTD-DF
   Ed Valeev, F. Pavosevic, A. Kumar             : LibInt (2-el integral package), F12 methods
   Garnet Chan, S. Sharma, J. Yang, R. Olivares  : DMRG
   Ulf Ekstrom                                   : XCFun DFT Library
   Mihaly Kallay                                 : mrcc  (arbitrary order and MRCC methods)
   Andreas Klamt, Michael Diedenhofen            : otool_cosmo (COSMO solvation model)
   Jiri Pittner, Ondrej Demel                    : Mk-CCSD
   Frank Weinhold                                : gennbo (NPA and NBO analysis)
   Christopher J. Cramer and Donald G. Truhlar   : smd solvation model
   Lars Goerigk                                  : TD-DFT with DH, B97 family of functionals
   V. Asgeirsson, H. Jonsson                     : NEB implementation
   FAccTs GmbH                                   : IRC, NEB, NEB-TS, Multilevel, MM, QM/MM, CI optimization
   S Lehtola, MJT Oliveira, MAL Marques          : LibXC Library


 Your calculation uses the libint2 library for the computation of 2-el integrals
 For citations please refer to: http://libint.valeyev.net

 Your ORCA version has been built with support for libXC version: 4.2.3
 For citations please refer to: https://tddft.org/programs/libxc/

 This ORCA versions uses:
   CBLAS   interface :  Fast vector & matrix operations
   LAPACKE interface :  Fast linear algebra routines
   SCALAPACK package :  Parallel linear algebra routines


----- Orbital basis set information -----
Your calculation utilizes the basis: def2-QZVPP
   F. Weigend and R. Ahlrichs, Phys. Chem. Chem. Phys. 7, 3297 (2005).

================================================================================
                                        WARNINGS
                       Please study these warnings very carefully!
================================================================================


INFO   : the flag for use of LIBINT has been found!

================================================================================
                                       INPUT FILE
================================================================================
NAME = H2_0_1_CASSCF-2-18_def2-qzvpp.sp.inp
|  1> !rhf def2-qzvpp tightscf 
|  2> !normalprint
|  3> 
|  4> %paras
|  5> #  rHH [19.952623149688797 16.43574799372698 13.538761800225439 11.152402139117903 9.1866653175426 7.567411809920191 6.233570019315557 5.134832907437553 4.229760619613384 3.4842175435383975 2.870084854071569 2.3641999865500756 1.9474830399087562 1.6042171611153242 1.32145576997553 1.088534267260644 0.8966678097917788 0.7386199822079362 0.6084298690766428 0.5011872336272722]
|  6>   rHH [0.5011872336272722 0.6084298690766428 0.7386199822079362 0.8966678097917788 1.088534267260644 1.32145576997553 1.6042171611153242 1.9474830399087562 2.3641999865500756 2.870084854071569 3.4842175435383975 4.229760619613384 5.134832907437553 6.233570019315557 7.567411809920191 9.1866653175426 11.152402139117903 13.538761800225439 16.43574799372698 19.952623149688797]
|  7> end
|  8> 
|  9> %scf
| 10>   maxiter 500
| 11> end
| 12> 
| 13> %casscf
| 14>   nel 2
| 15>   norb 18
| 16> end
| 17> 
| 18> *int 0 1
| 19> H 0 0 0 0 0 0
| 20> H 1 0 0 {rHH} 0 0
| 21> *
| 22> 
| 23>                          ****END OF INPUT****
================================================================================

                       ******************************
                       * Parameter Scan Calculation *
                       ******************************

Trajectory settings:
    -> SCF surface will be mapped

There are 1 parameter(s) to be scanned
           RHH: user defined at 20 points
There will be   20 energy evaluations


         *************************************************************
                                TRAJECTORY STEP   1
                RHH  :   0.50118723
         *************************************************************
---------------------------------
CARTESIAN COORDINATES (ANGSTROEM)
---------------------------------
  H      0.000000    0.000000    0.000000
  H      0.501187    0.000000    0.000000

----------------------------
CARTESIAN COORDINATES (A.U.)
----------------------------
  NO LB      ZA    FRAG     MASS         X           Y           Z
   0 H     1.0000    0     1.008    0.000000    0.000000    0.000000
   1 H     1.0000    0     1.008    0.947107    0.000000    0.000000

--------------------------------
INTERNAL COORDINATES (ANGSTROEM)
--------------------------------
 H      0   0   0     0.000000000000     0.00000000     0.00000000
 H      1   0   0     0.501187233627     0.00000000     0.00000000

---------------------------
INTERNAL COORDINATES (A.U.)
---------------------------
 H      0   0   0     0.000000000000     0.00000000     0.00000000
 H      1   0   0     0.947106613373     0.00000000     0.00000000

---------------------
BASIS SET INFORMATION
---------------------
There are 1 groups of distinct atoms

 Group   1 Type H   : 7s3p2d1f contracted to 4s3p2d1f pattern {4111/111/11/1}

Atom   0H    basis set group =>   1
Atom   1H    basis set group =>   1
------------------------------------------------------------------------------
                           ORCA GTO INTEGRAL CALCULATION
------------------------------------------------------------------------------

                         BASIS SET STATISTICS AND STARTUP INFO

 # of primitive gaussian shells          ...   26
 # of primitive gaussian functions       ...   66
 # of contracted shells                  ...   20
 # of contracted basis functions         ...   60
 Highest angular momentum                ...    3
 Maximum contraction depth               ...    4
 Integral package used                   ... LIBINT
 Integral threshhold            Thresh   ...  2.500e-11
 Primitive cut-off              TCut     ...  2.500e-12


------------------------------ INTEGRAL EVALUATION ----------------------------


 * One electron integrals 
 Pre-screening matrix                    ... done
 Shell pair data                         ... done (   0.000 sec)

-------------------------------------------------------------------------------
                                 ORCA SCF
-------------------------------------------------------------------------------

------------
SCF SETTINGS
------------
Hamiltonian:
 Ab initio Hamiltonian  Method          .... Hartree-Fock(GTOs)


General Settings:
 Integral files         IntName         .... H2_0_1_CASSCF-2-18_def2-qzvpp.sp
 Hartree-Fock type      HFTyp           .... CASSCF
 Total Charge           Charge          ....    0
 Multiplicity           Mult            ....    1
 Number of Electrons    NEL             ....    2
 Basis Dimension        Dim             ....   60
 Nuclear Repulsion      ENuc            ....      1.0558473417 Eh


Diagonalization of the overlap matrix:
Smallest eigenvalue                        ... 5.708e-05
Time for diagonalization                   ...    0.074 sec
Threshold for overlap eigenvalues          ... 1.000e-08
Number of eigenvalues below threshold      ... 0
Time for construction of square roots      ...    0.004 sec
Total time needed                          ...    0.078 sec

-------------------
DFT GRID GENERATION
-------------------

General Integration Accuracy     IntAcc      ...  4.340
Radial Grid Type                 RadialGrid  ... Gauss-Chebyshev
Angular Grid (max. acc.)         AngularGrid ... Lebedev-110
Angular grid pruning method      GridPruning ... 3 (G Style)
Weight generation scheme         WeightScheme... Becke
Basis function cutoff            BFCut       ...    1.0000e-11
Integration weight cutoff        WCut        ...    1.0000e-14
Grids for H and He will be reduced by one unit

# of grid points (after initial pruning)     ...   1588 (   0.0 sec)
# of grid points (after weights+screening)   ...   1560 (   0.0 sec)
nearest neighbour list constructed           ...    0.0 sec
Grid point re-assignment to atoms done       ...    0.0 sec
Grid point division into batches done        ...    0.0 sec
Reduced shell lists constructed in    0.0 sec

Total number of grid points                  ...     1560
Total number of batches                      ...       26
Average number of points per batch           ...       60
Average number of grid points per atom       ...      780
Average number of shells per batch           ...    19.15 (95.74%)
Average number of basis functions per batch  ...    57.44 (95.74%)
Average number of large shells per batch     ...    18.78 (98.07%)
Average number of large basis fcns per batch ...    56.19 (97.81%)
Maximum spatial batch extension              ...  15.26, 21.59, 21.59 au
Average spatial batch extension              ...   4.46,  7.66,  7.77 au

Time for grid setup =    0.007 sec

------------------------------
INITIAL GUESS: MODEL POTENTIAL
------------------------------
Loading Hartree-Fock densities                     ... done
Calculating cut-offs                               ... done
Setting up the integral package                    ... done
Initializing the effective Hamiltonian             ... done
Starting the Coulomb interaction                   ... done (   0.0 sec)
Reading the grid                                   ... done
Mapping shells                                     ... done
Starting the XC term evaluation                    ... done (   0.0 sec)
Transforming the Hamiltonian                       ... done (   0.0 sec)
Diagonalizing the Hamiltonian                      ... done (   0.0 sec)
Back transforming the eigenvectors                 ... done (   0.0 sec)
Now organizing SCF variables                       ... done
                      ------------------
                      INITIAL GUESS DONE (   0.1 sec)
                      ------------------


 ... the calculation is a CASSCF calculation -I'm leaving here GOOD LUCK!!!

-------------------------------------------------------------------------------
                              ORCA-CASSCF
-------------------------------------------------------------------------------

Setting up the integral package       ... done
Building the CAS space                ... done (171 configurations for Mult=1)
----------------
GENERAL CI SETUP
----------------

Checking configurations                         ... done
Determining NSOMO,NDOMO and NVMO                ... done
Building up the tree                            ... done
Building N-1 electron tree                      ... done
Building RI configuration space                 ... done
Analyzing the RI configuration space            ... done
Determining NDOMO,NSOMO,NVMO for RI space       ... done
Determination of address arrays                 ... done
Looking for max. no of open shells              ... done
Setting up coupling coefficient container       ... Memory for address arrays  		      ... done
Make address arrays			      ... done
Memory for buffers 			      ... done
Setting up spin-function prototypes	      ... (MAXOPEN=2) 0 2 4 done
Trivial cases - DOMO's			      ... done (  0.0 MB)
Number of open shells			    ...  0
domo->virtual excitations			... done (  0.0 MB)
domo->somo excitations				... done (  0.0 MB)
somo->virtual excitations			... done (  0.0 MB)
somo->somo excitations				... done (  0.0 MB)
Number of open shells			    ...  2
domo->virtual excitations			... done (  0.0 MB)
domo->somo excitations				... done (  0.0 MB)
somo->virtual excitations			... done (  0.0 MB)
somo->somo excitations				... done (  0.0 MB)
Coupling container construction done
done
Now recording sub-block dimensions              ... done
Memory used for TGeneralCI arrays =     0.0 MB
  Original space  =     0.0
  RI       space  =     0.0
  Address arrays  =     0.0
  Coupling coeffs =     0.0
Multiplicity                          ...       1
# of electrons                        ...       2
# of orbitals                         ...      18
# of roots requested                  ...       1
Configuration space:
# of configurations                   ...     171
# of CSF's                            ...     171
# of rejected configurations          ...       0
Min. # of SOMOs                       ...       0
Max. # of SOMOs                       ...       2
Max. # of DOMOs                       ...       1
Max. # of VMOs                        ...      17
RI Configuration space:
# of configurations                   ...     171
# of CSF's                            ...     171
# of rejected configurations          ...       0
Min. # of SOMOs                       ...       0
Max. # of SOMOs                       ...       2
Max. # of DOMOs                       ...       1
Max. # of VMOs                        ...      17
(N-1) Electron Configuration space:
# of configurations                   ...      18
CSF dimensions:
      0 SOMOs give     1 CSFs
      2 SOMOs give     1 CSFs


SYSTEM-SPECIFIC SETTINGS:
Number of active electrons          ...    2
Number of active orbitals           ...   18
Total number of electrons           ...    2
Total number of orbitals            ...   60

Determined orbital ranges:
   Internal       0 -   -1 (   0 orbitals)
   Active         0 -   17 (  18 orbitals)
   External      18 -   59 (  42 orbitals)
Number of rotation parameters      ...    756

CI-STEP:
CI strategy                         ... General CI
Number of multiplicity blocks       ...    1
BLOCK  1 WEIGHT=   1.0000
  Multiplicity                      ...    1
  #(Configurations)                 ...  171
  #(CSFs)                           ...  171
  #(Roots)                          ...    1
    ROOT=0 WEIGHT=    1.000000

  PrintLevel                        ...    1
  N(GuessMat)                       ...       512
  MaxDim(CI)                        ...        10
  MaxIter(CI)                       ...        64
  Energy Tolerance CI               ...  2.50e-09
  Residual Tolerance CI             ...  2.50e-09
  Shift(CI)                         ...  1.00e-04

INTEGRAL-TRANSFORMATION-STEP:
  Algorithm                         ... EXACT

ORBITAL-IMPROVEMENT-STEP:
  Algorithm                         ... SuperCI(PT)
  Default Parametrization           ... CAYLEY
  Act-Act rotations                 ... depends on algorithm used

  Note: SuperCI(PT) will ignore FreezeIE, FreezeAct and FreezeGrad. In general Default settings are encouraged.
        In conjunction with ShiftUp, ShiftDn or GradScaling the performance of SuperCI(PT) is less optimal.  

  MaxRot                            ... 2.00e-01 
  Max. no of vectors (DIIS)         ... 15
  DThresh (cut-off) metric          ... 1.00e-06
  Switch step at gradient           ...  3.00e-02 
  Switch step at iteration          ...        50   
  Switch step to                    ... SuperCI(PT)    

SCF-SETTINGS:
  Incremental                       ... on
  RIJCOSX approximation             ... off
  RI-JK approximation               ... off
  AO integral handling              ... DIRECT
  Integral Neglect Thresh           ...  2.50e-11
  Primitive cutoff TCut             ...  2.50e-12
  Energy convergence tolerance      ...  2.50e-08
  Orbital gradient convergence      ...  2.50e-04
  Max. number of iterations         ...        75  


FINAL ORBITALS:
  Active   Orbitals                 ... natural 
  Internal Orbitals                 ... canonical 
  External Orbitals                 ... canonical 

------------------
CAS-SCF ITERATIONS
------------------


MACRO-ITERATION   1: 
   --- Inactive Energy E0 = 1.05584734 Eh
CI-ITERATION   0: 
    -1.094004157   0.000000000000 (    0.00)
   CI-PROBLEM SOLVED
   DENSITIES MADE

                 <<<<<<<<<<<<<<<<<<INITIAL CI STATE CHECK>>>>>>>>>>>>>>>>>>

BLOCK  1 MULT= 1 NROOTS= 1 
ROOT   0:  E=      -1.0940041575 Eh
      0.98179 [     0]: 200000000000000000
      0.00382 [     2]: 101000000000000000

                 <<<<<<<<<<<<<<<<<<INITIAL CI STATE CHECK>>>>>>>>>>>>>>>>>>

   E(CAS)=    -1.094004157 Eh DE=     0.000000000
   --- Energy gap subspaces: Ext-Act = 0.290   Act-Int = 0.600
   N(occ)=  1.97012 0.00295 0.00655 0.00286 0.00286 0.00368 0.00120 0.00003 0.00003 0.00432 0.00202 0.00007 0.00007 0.00093 0.00111 0.00111 0.00004 0.00004
   ||g|| =      0.196786579 Max(G)=     0.165033817 Rot=24,0
   --- Orbital Update [SuperCI(PT)]
   --- Canonicalize Internal Space
   --- Canonicalize External Space
   --- SX_PT (Skipped TA=4 IT=0): ||X|| =      1.986378440 Max(X)(24,9) =     -0.907548198 
   --- SFit(Active Orbitals)

MACRO-ITERATION   2: 
   --- Inactive Energy E0 = 1.05584734 Eh
CI-ITERATION   0: 
    -1.098190164   0.000000000000 (    0.00)
   CI-PROBLEM SOLVED
   DENSITIES MADE
   E(CAS)=    -1.098190164 Eh DE=    -0.004186007
   --- Energy gap subspaces: Ext-Act = -0.303   Act-Int = 0.600
   N(occ)=  1.97242 0.00226 0.00390 0.00232 0.00232 0.00343 0.00198 0.00006 0.00006 0.00453 0.00241 0.00010 0.00010 0.00121 0.00137 0.00137 0.00007 0.00007
   ||g|| =      0.110931807 Max(G)=     0.077972139 Rot=24,0
   --- Orbital Update [SuperCI(PT)]
   --- Canonicalize Internal Space
   --- Canonicalize External Space
   --- SX_PT (Skipped TA=4 IT=0): ||X|| =      1.013695582 Max(X)(18,6) =     -0.472183030 
   --- SFit(Active Orbitals)

MACRO-ITERATION   3: 
   --- Inactive Energy E0 = 1.05584734 Eh
CI-ITERATION   0: 
    -1.102747452   0.000000000000 (    0.00)
   CI-PROBLEM SOLVED
   DENSITIES MADE
   E(CAS)=    -1.102747452 Eh DE=    -0.004557287
   --- Energy gap subspaces: Ext-Act = -2.069   Act-Int = 0.600
   N(occ)=  1.97111 0.00252 0.00349 0.00261 0.00261 0.00349 0.00276 0.00004 0.00004 0.00457 0.00234 0.00008 0.00008 0.00128 0.00142 0.00142 0.00007 0.00007
   ||g|| =      0.052971093 Max(G)=    -0.045495642 Rot=18,0
   --- Orbital Update [SuperCI(PT)]
   --- Canonicalize Internal Space
   --- Canonicalize External Space
   --- SX_PT (Skipped TA=4 IT=0): ||X|| =      0.289373038 Max(X)(19,6) =      0.203306283 
   --- SFit(Active Orbitals)

MACRO-ITERATION   4: 
   --- Inactive Energy E0 = 1.05584734 Eh
CI-ITERATION   0: 
    -1.103410110   0.000000000000 (    0.00)
   CI-PROBLEM SOLVED
   DENSITIES MADE
   E(CAS)=    -1.103410110 Eh DE=    -0.000662659
   --- Energy gap subspaces: Ext-Act = -2.352   Act-Int = 0.600
   N(occ)=  1.97065 0.00252 0.00364 0.00264 0.00264 0.00352 0.00284 0.00004 0.00004 0.00473 0.00237 0.00008 0.00008 0.00127 0.00139 0.00139 0.00007 0.00007
   ||g|| =      0.015691477 Max(G)=    -0.010834875 Rot=18,0
   --- Orbital Update [SuperCI(PT)]
   --- Canonicalize Internal Space
   --- Canonicalize External Space
   --- SX_PT (Skipped TA=4 IT=0): ||X|| =      0.061237938 Max(X)(19,6) =     -0.035358325 
   --- SFit(Active Orbitals)

MACRO-ITERATION   5: 
   --- Inactive Energy E0 = 1.05584734 Eh
CI-ITERATION   0: 
    -1.103449727   0.000000000000 (    0.00)
   CI-PROBLEM SOLVED
   DENSITIES MADE
   E(CAS)=    -1.103449727 Eh DE=    -0.000039617
   --- Energy gap subspaces: Ext-Act = -2.386   Act-Int = 0.600
   N(occ)=  1.97054 0.00250 0.00375 0.00265 0.00265 0.00352 0.00280 0.00004 0.00004 0.00478 0.00238 0.00008 0.00008 0.00126 0.00139 0.00139 0.00007 0.00007
   ||g|| =      0.005841777 Max(G)=    -0.003864858 Rot=44,0
   --- Orbital Update [SuperCI(PT)]
   --- Canonicalize Internal Space
   --- Canonicalize External Space
   --- SX_PT (Skipped TA=4 IT=0): ||X|| =      0.021802027 Max(X)(19,6) =     -0.011429877 
   --- SFit(Active Orbitals)

MACRO-ITERATION   6: 
   --- Inactive Energy E0 = 1.05584734 Eh
CI-ITERATION   0: 
    -1.103453293   0.000000000000 (    0.00)
   CI-PROBLEM SOLVED
   DENSITIES MADE
   E(CAS)=    -1.103453293 Eh DE=    -0.000003565
   --- Energy gap subspaces: Ext-Act = -2.434   Act-Int = 0.600
   N(occ)=  1.97049 0.00249 0.00380 0.00265 0.00265 0.00352 0.00278 0.00004 0.00004 0.00481 0.00238 0.00008 0.00008 0.00126 0.00139 0.00139 0.00007 0.00007
   ||g|| =      0.003048306 Max(G)=    -0.001772320 Rot=44,0
   --- Orbital Update [SuperCI(PT)]
   --- Canonicalize Internal Space
   --- Canonicalize External Space
   --- SX_PT (Skipped TA=4 IT=0): ||X|| =      0.011613859 Max(X)(18,9) =      0.006574899 
   --- SFit(Active Orbitals)

MACRO-ITERATION   7: 
   --- Inactive Energy E0 = 1.05584734 Eh
CI-ITERATION   0: 
    -1.103454103   0.000000000000 (    0.00)
   CI-PROBLEM SOLVED
   DENSITIES MADE
   E(CAS)=    -1.103454103 Eh DE=    -0.000000810
   --- Energy gap subspaces: Ext-Act = -2.425   Act-Int = 0.600
   N(occ)=  1.97047 0.00249 0.00382 0.00265 0.00265 0.00352 0.00278 0.00004 0.00004 0.00481 0.00238 0.00008 0.00008 0.00126 0.00139 0.00139 0.00007 0.00007
   ||g|| =      0.000551445 Max(G)=    -0.000358229 Rot=48,0
   --- Orbital Update [SuperCI(PT)]
   --- Canonicalize Internal Space
   --- Canonicalize External Space
   --- SX_PT (Skipped TA=4 IT=0): ||X|| =      0.003241219 Max(X)(19,6) =      0.002325658 
   --- SFit(Active Orbitals)

MACRO-ITERATION   8: 
   --- Inactive Energy E0 = 1.05584734 Eh
CI-ITERATION   0: 
    -1.103454163   0.000000000000 (    0.00)
   CI-PROBLEM SOLVED
   DENSITIES MADE
   E(CAS)=    -1.103454163 Eh DE=    -0.000000060
   --- Energy gap subspaces: Ext-Act = -2.426   Act-Int = 0.600
   N(occ)=  1.97047 0.00249 0.00382 0.00265 0.00265 0.00352 0.00278 0.00004 0.00004 0.00482 0.00238 0.00008 0.00008 0.00126 0.00139 0.00139 0.00007 0.00007
   ||g|| =      0.000219996 Max(G)=    -0.000165350 Rot=30,0
                     ---- THE CAS-SCF GRADIENT HAS CONVERGED ----
                            --- FINALIZING ORBITALS ---
                    ---- DOING ONE FINAL ITERATION FOR PRINTING ----
   --- Forming Natural Orbitals
   --- Canonicalize Internal Space
   --- Canonicalize External Space

MACRO-ITERATION   9: 
   --- Inactive Energy E0 = 1.05584734 Eh
   --- All densities will be recomputed
CI-ITERATION   0: 
    -1.103454163   0.000000000000 (    0.00)
   CI-PROBLEM SOLVED
   DENSITIES MADE
   E(CAS)=    -1.103454163 Eh DE=    -0.000000000
   --- Energy gap subspaces: Ext-Act = -3.534   Act-Int = 0.600
   N(occ)=  1.97490 0.00950 0.00676 0.00396 0.00396 0.00015 0.00013 0.00011 0.00011 0.00009 0.00008 0.00008 0.00008 0.00008 0.00000 0.00000 0.00000 0.00000
   ||g|| =      0.000219996 Max(G)=     0.000163695 Rot=30,0
--------------
CASSCF RESULTS
--------------

Final CASSCF energy       : -1.103454163 Eh     -30.0265 eV

----------------
ORBITAL ENERGIES
----------------

  NO   OCC          E(Eh)            E(eV) 
   0   1.9749      -0.674224       -18.3466 
   1   0.0095       0.971179        26.4271 
   2   0.0068       1.061164        28.8757 
   3   0.0040       1.189220        32.3603 
   4   0.0040       1.189220        32.3603 
   5   0.0001       3.685176       100.2787 
   6   0.0001       3.404606        92.6440 
   7   0.0001       3.315032        90.2066 
   8   0.0001       3.315032        90.2066 
   9   0.0001       4.274001       116.3015 
  10   0.0001       4.284091       116.5760 
  11   0.0001       4.284091       116.5760 
  12   0.0001       3.339368        90.8688 
  13   0.0001       3.339368        90.8688 
  14   0.0000       1.285074        34.9686 
  15   0.0000       1.285074        34.9686 
  16   0.0000       1.240900        33.7666 
  17   0.0000       0.291188         7.9236 
  18   0.0000       0.749599        20.3976 
  19   0.0000       1.267971        34.5032 
  20   0.0000       2.397155        65.2299 
  21   0.0000       2.558471        69.6195 
  22   0.0000       2.558471        69.6195 
  23   0.0000       2.579468        70.1909 
  24   0.0000       2.579468        70.1909 
  25   0.0000       2.760475        75.1163 
  26   0.0000       3.256945        88.6260 
  27   0.0000       3.256945        88.6260 
  28   0.0000       4.555930       123.9732 
  29   0.0000       4.555930       123.9732 
  30   0.0000       5.112063       139.1063 
  31   0.0000       5.776586       157.1889 
  32   0.0000       5.776586       157.1889 
  33   0.0000       5.890561       160.2903 
  34   0.0000       5.890564       160.2904 
  35   0.0000       6.186124       168.3330 
  36   0.0000       6.328234       172.2000 
  37   0.0000       6.875560       187.0935 
  38   0.0000       6.875560       187.0935 
  39   0.0000       7.111022       193.5007 
  40   0.0000       7.111022       193.5007 
  41   0.0000       7.119481       193.7309 
  42   0.0000       7.119481       193.7309 
  43   0.0000       7.145962       194.4515 
  44   0.0000       7.145962       194.4515 
  45   0.0000       7.556567       205.6246 
  46   0.0000       7.569170       205.9676 
  47   0.0000       7.569173       205.9677 
  48   0.0000       8.053569       219.1487 
  49   0.0000       8.488692       230.9891 
  50   0.0000       8.488692       230.9891 
  51   0.0000      10.623270       289.0739 
  52   0.0000      10.623270       289.0739 
  53   0.0000      11.372320       309.4566 
  54   0.0000      11.372320       309.4566 
  55   0.0000      11.992878       326.3428 
  56   0.0000      15.082510       410.4160 
  57   0.0000      15.082510       410.4160 
  58   0.0000      15.667937       426.3462 
  59   0.0000      18.505459       503.5591 


---------------------------------------------
CAS-SCF STATES FOR BLOCK  1 MULT= 1 NROOTS= 1
---------------------------------------------

ROOT   0:  E=      -1.1034541628 Eh
      0.98745 [     0]: 200000000000000000
      0.00475 [    18]: 020000000000000000
      0.00338 [    35]: 002000000000000000


--------------
DENSITY MATRIX
--------------

                  0          1          2          3          4          5    
      0       1.974902  -0.000000   0.000000  -0.000000   0.000000   0.000000
      1      -0.000000   0.009502   0.000000  -0.000000  -0.000000   0.000000
      2       0.000000   0.000000   0.006757   0.000000   0.000000   0.000000
      3      -0.000000  -0.000000   0.000000   0.003959   0.000000  -0.000000
      4       0.000000  -0.000000   0.000000   0.000000   0.003959  -0.000000
      5       0.000000   0.000000   0.000000  -0.000000  -0.000000   0.000145
      6       0.000000  -0.000000  -0.000000  -0.000000   0.000000   0.000000
      7      -0.000000  -0.000000  -0.000000  -0.000000   0.000000  -0.000000
      8       0.000000   0.000000  -0.000000   0.000000   0.000000   0.000000
      9      -0.000000  -0.000000   0.000000  -0.000000   0.000000  -0.000000
     10       0.000000   0.000000  -0.000000  -0.000000  -0.000000  -0.000000
     11       0.000000   0.000000  -0.000000   0.000000  -0.000000   0.000000
     12      -0.000000  -0.000000  -0.000000   0.000000  -0.000000   0.000000
     13      -0.000000  -0.000000  -0.000000  -0.000000   0.000000  -0.000000
     14       0.000000   0.000000  -0.000000  -0.000000  -0.000000   0.000000
     15       0.000000   0.000000   0.000000   0.000000   0.000000   0.000000
     16      -0.000000  -0.000000  -0.000000   0.000000  -0.000000   0.000000
     17       0.000000   0.000000   0.000000   0.000000  -0.000000   0.000000
                  6          7          8          9         10         11    
      0       0.000000  -0.000000   0.000000  -0.000000   0.000000   0.000000
      1      -0.000000  -0.000000   0.000000  -0.000000   0.000000   0.000000
      2      -0.000000  -0.000000  -0.000000   0.000000  -0.000000  -0.000000
      3      -0.000000  -0.000000   0.000000  -0.000000  -0.000000   0.000000
      4       0.000000   0.000000   0.000000   0.000000  -0.000000  -0.000000
      5       0.000000  -0.000000   0.000000  -0.000000  -0.000000   0.000000
      6       0.000130  -0.000000   0.000000  -0.000000   0.000000  -0.000000
      7      -0.000000   0.000110   0.000000  -0.000000   0.000000   0.000000
      8       0.000000   0.000000   0.000110   0.000000   0.000000  -0.000000
      9      -0.000000  -0.000000   0.000000   0.000092   0.000000  -0.000000
     10       0.000000   0.000000   0.000000   0.000000   0.000084   0.000000
     11      -0.000000   0.000000  -0.000000  -0.000000   0.000000   0.000084
     12       0.000000   0.000000  -0.000000  -0.000000  -0.000000  -0.000000
     13      -0.000000  -0.000000  -0.000000  -0.000000   0.000000  -0.000000
     14      -0.000000   0.000000  -0.000000   0.000000   0.000000  -0.000000
     15       0.000000  -0.000000   0.000000   0.000000  -0.000000   0.000000
     16       0.000000   0.000000  -0.000000   0.000000  -0.000000  -0.000000
     17      -0.000000  -0.000000  -0.000000  -0.000000   0.000000   0.000000
                 12         13         14         15         16         17    
      0      -0.000000  -0.000000   0.000000   0.000000  -0.000000   0.000000
      1      -0.000000  -0.000000   0.000000   0.000000  -0.000000   0.000000
      2      -0.000000  -0.000000  -0.000000   0.000000  -0.000000   0.000000
      3       0.000000  -0.000000  -0.000000   0.000000   0.000000   0.000000
      4      -0.000000   0.000000  -0.000000   0.000000  -0.000000  -0.000000
      5       0.000000  -0.000000   0.000000   0.000000   0.000000   0.000000
      6       0.000000  -0.000000  -0.000000   0.000000   0.000000  -0.000000
      7       0.000000  -0.000000   0.000000  -0.000000   0.000000  -0.000000
      8      -0.000000  -0.000000  -0.000000   0.000000  -0.000000  -0.000000
      9      -0.000000  -0.000000   0.000000   0.000000   0.000000  -0.000000
     10      -0.000000   0.000000   0.000000  -0.000000  -0.000000   0.000000
     11      -0.000000  -0.000000  -0.000000   0.000000  -0.000000   0.000000
     12       0.000082  -0.000000   0.000000  -0.000000  -0.000000   0.000000
     13      -0.000000   0.000082  -0.000000   0.000000   0.000000  -0.000000
     14       0.000000  -0.000000   0.000000   0.000000  -0.000000  -0.000000
     15      -0.000000   0.000000   0.000000   0.000000  -0.000000  -0.000000
     16      -0.000000   0.000000  -0.000000  -0.000000   0.000000  -0.000000
     17       0.000000  -0.000000  -0.000000  -0.000000  -0.000000   0.000000
Trace of the electron density:  2.000000

-----------------
ENERGY COMPONENTS
-----------------

One electron energy          :     -2.848309631 Eh         -77.5064 eV
Two electron energy          :      0.689008127 Eh          18.7489 eV
Nuclear repulsion energy     :      1.055847342 Eh          28.7311 eV
                               ----------------
                                   -1.103454163

Kinetic energy               :      1.492754342 Eh          40.6199 eV
Potential energy             :     -2.596208504 Eh         -70.6464 eV
Virial ratio                 :     -1.739206802 
                               ----------------
                                   -1.103454163

Core energy                  :      1.055847342 Eh       28.7311 eV


----------------------------
LOEWDIN ORBITAL-COMPOSITIONS
----------------------------

                      0         1         2         3         4         5   
                  -0.67422   0.97118   1.06116   1.18922   1.18922   3.68518
                   1.97490   0.00950   0.00676   0.00396   0.00396   0.00015
                  --------  --------  --------  --------  --------  --------
 0 H  s              47.2       9.8      35.6       0.0       0.0      17.9
 0 H  pz              0.0       0.0       0.0       0.0      47.1       0.0
 0 H  px              2.4      35.5      12.4       0.0       0.0      17.3
 0 H  py              0.0       0.0       0.0      47.1       0.0       0.0
 0 H  dz2             0.1       1.0       0.5       0.0       0.0       2.5
 0 H  dxz             0.0       0.0       0.0       0.0       2.8       0.0
 0 H  dx2y2           0.2       3.1       1.4       0.0       0.0       7.5
 0 H  dxy             0.0       0.0       0.0       2.8       0.0       0.0
 0 H  f+1             0.0       0.2       0.1       0.0       0.0       1.7
 0 H  f+3             0.0       0.3       0.1       0.0       0.0       2.9
 0 H  f-3             0.0       0.0       0.0       0.1       0.0       0.0
 1 H  s              47.2       9.8      35.6       0.0       0.0      17.9
 1 H  pz              0.0       0.0       0.0       0.0      47.1       0.0
 1 H  px              2.4      35.5      12.4       0.0       0.0      17.3
 1 H  py              0.0       0.0       0.0      47.1       0.0       0.0
 1 H  dz2             0.1       1.0       0.5       0.0       0.0       2.5
 1 H  dxz             0.0       0.0       0.0       0.0       2.8       0.0
 1 H  dx2y2           0.2       3.1       1.4       0.0       0.0       7.5
 1 H  dxy             0.0       0.0       0.0       2.8       0.0       0.0
 1 H  f+1             0.0       0.2       0.1       0.0       0.0       1.7
 1 H  f+3             0.0       0.3       0.1       0.0       0.0       2.9
 1 H  f-3             0.0       0.0       0.0       0.1       0.0       0.0

                      6         7         8         9        10        11   
                   3.40461   3.31503   3.31503   4.27400   4.28409   4.28409
                   0.00013   0.00011   0.00011   0.00009   0.00008   0.00008
                  --------  --------  --------  --------  --------  --------
 0 H  s               2.7       0.0       0.0      20.2       0.0       0.0
 0 H  pz              0.0       0.0      18.5       0.0      35.6       0.0
 0 H  px             23.7       0.0       0.0      15.1       0.0       0.0
 0 H  py              0.0      18.5       0.0       0.0       0.0      35.6
 0 H  dz2             4.7       0.0       0.0       3.0       0.0       0.0
 0 H  dxz             0.0       0.0      26.2       0.0      11.7       0.0
 0 H  dx2y2          14.2       0.0       0.0       9.1       0.0       0.0
 0 H  dxy             0.0      26.2       0.0       0.0       0.0      11.7
 0 H  f0              0.0       0.0       2.0       0.0       1.0       0.0
 0 H  f+1             1.8       0.0       0.0       0.9       0.0       0.0
 0 H  f-1             0.0       0.3       0.0       0.0       0.0       0.2
 0 H  f+2             0.0       0.0       3.3       0.0       1.7       0.0
 0 H  f+3             3.0       0.0       0.0       1.6       0.0       0.0
 0 H  f-3             0.0       4.9       0.0       0.0       0.0       2.5
 1 H  s               2.7       0.0       0.0      20.2       0.0       0.0
 1 H  pz              0.0       0.0      18.5       0.0      35.6       0.0
 1 H  px             23.7       0.0       0.0      15.1       0.0       0.0
 1 H  py              0.0      18.5       0.0       0.0       0.0      35.6
 1 H  dz2             4.7       0.0       0.0       3.0       0.0       0.0
 1 H  dxz             0.0       0.0      26.2       0.0      11.7       0.0
 1 H  dx2y2          14.2       0.0       0.0       9.1       0.0       0.0
 1 H  dxy             0.0      26.2       0.0       0.0       0.0      11.7
 1 H  f0              0.0       0.0       2.0       0.0       1.0       0.0
 1 H  f+1             1.8       0.0       0.0       0.9       0.0       0.0
 1 H  f-1             0.0       0.3       0.0       0.0       0.0       0.2
 1 H  f+2             0.0       0.0       3.3       0.0       1.7       0.0
 1 H  f+3             3.0       0.0       0.0       1.6       0.0       0.0
 1 H  f-3             0.0       4.9       0.0       0.0       0.0       2.5

                     12        13        14        15        16        17   
                   3.33937   3.33937   1.28507   1.28507   1.24090   0.29119
                   0.00008   0.00008   0.00000   0.00000   0.00000   0.00000
                  --------  --------  --------  --------  --------  --------
 0 H  s               0.0       0.0       0.0       0.0      42.4      49.7
 0 H  pz              0.0       0.0      48.3       0.0       0.0       0.0
 0 H  px              0.0       0.0       0.0       0.0       2.1       0.2
 0 H  py              0.0       0.0       0.0      48.3       0.0       0.0
 0 H  dz2             0.0      34.3       0.0       0.0       1.4       0.0
 0 H  dxz             0.0       0.0       1.6       0.0       0.0       0.0
 0 H  dyz            45.7       0.0       0.0       0.0       0.0       0.0
 0 H  dx2y2           0.0      11.4       0.0       0.0       4.1       0.1
 0 H  dxy             0.0       0.0       0.0       1.6       0.0       0.0
 0 H  f+1             0.0       2.7       0.0       0.0       0.0       0.0
 0 H  f-2             4.3       0.0       0.0       0.0       0.0       0.0
 0 H  f+3             0.0       1.6       0.0       0.0       0.0       0.0
 0 H  f-3             0.0       0.0       0.0       0.1       0.0       0.0
 1 H  s               0.0       0.0       0.0       0.0      42.4      49.7
 1 H  pz              0.0       0.0      48.3       0.0       0.0       0.0
 1 H  px              0.0       0.0       0.0       0.0       2.1       0.2
 1 H  py              0.0       0.0       0.0      48.3       0.0       0.0
 1 H  dz2             0.0      34.3       0.0       0.0       1.4       0.0
 1 H  dxz             0.0       0.0       1.6       0.0       0.0       0.0
 1 H  dyz            45.7       0.0       0.0       0.0       0.0       0.0
 1 H  dx2y2           0.0      11.4       0.0       0.0       4.1       0.1
 1 H  dxy             0.0       0.0       0.0       1.6       0.0       0.0
 1 H  f+1             0.0       2.7       0.0       0.0       0.0       0.0
 1 H  f-2             4.3       0.0       0.0       0.0       0.0       0.0
 1 H  f+3             0.0       1.6       0.0       0.0       0.0       0.0
 1 H  f-3             0.0       0.0       0.0       0.1       0.0       0.0

                     18        19        20        21        22        23   
                   0.74960   1.26797   2.39716   2.55847   2.55847   2.57947
                   0.00000   0.00000   0.00000   0.00000   0.00000   0.00000
                  --------  --------  --------  --------  --------  --------
 0 H  s              46.7       7.5      17.4       0.0       0.0       0.0
 0 H  px              3.2      39.8      21.7       0.0       0.0       0.0
 0 H  py              0.0       0.0       0.0       0.0       0.0       9.5
 0 H  dz2             0.0       0.6       2.2      32.0       0.0       0.0
 0 H  dxz             0.0       0.0       0.0       0.0       0.0       0.2
 0 H  dyz             0.0       0.0       0.0       0.0      42.7       0.0
 0 H  dx2y2           0.1       1.8       6.5      10.7       0.0       0.0
 0 H  dxy             0.0       0.0       0.0       0.0       0.0      35.3
 0 H  f+1             0.0       0.1       0.9       4.6       0.0       0.0
 0 H  f-1             0.0       0.0       0.0       0.0       0.0       0.3
 0 H  f-2             0.0       0.0       0.0       0.0       7.3       0.0
 0 H  f+3             0.0       0.2       1.4       2.7       0.0       0.0
 0 H  f-3             0.0       0.0       0.0       0.0       0.0       4.6
 1 H  s              46.7       7.5      17.4       0.0       0.0       0.0
 1 H  px              3.2      39.8      21.7       0.0       0.0       0.0
 1 H  py              0.0       0.0       0.0       0.0       0.0       9.5
 1 H  dz2             0.0       0.6       2.2      32.0       0.0       0.0
 1 H  dxz             0.0       0.0       0.0       0.0       0.0       0.2
 1 H  dyz             0.0       0.0       0.0       0.0      42.7       0.0
 1 H  dx2y2           0.1       1.8       6.5      10.7       0.0       0.0
 1 H  dxy             0.0       0.0       0.0       0.0       0.0      35.3
 1 H  f+1             0.0       0.1       0.9       4.6       0.0       0.0
 1 H  f-1             0.0       0.0       0.0       0.0       0.0       0.3
 1 H  f-2             0.0       0.0       0.0       0.0       7.3       0.0
 1 H  f+3             0.0       0.2       1.4       2.7       0.0       0.0
 1 H  f-3             0.0       0.0       0.0       0.0       0.0       4.6

                     24        25        26        27        28        29   
                   2.57947   2.76047   3.25695   3.25695   4.55593   4.55593
                   0.00000   0.00000   0.00000   0.00000   0.00000   0.00000
                  --------  --------  --------  --------  --------  --------
 0 H  s               0.0       6.3       0.0       0.0       0.0       0.0
 0 H  pz              9.5       0.0       8.2       0.0       4.8      32.1
 0 H  px              0.0      10.8       0.0       0.0       0.0       0.0
 0 H  py              0.1       0.0       0.0       8.2      32.1       4.8
 0 H  dz2             0.0       6.8       0.0       0.0       0.0       0.0
 0 H  dxz            35.3       0.0      32.7       0.0       1.3       9.0
 0 H  dx2y2           0.0      20.3       0.0       0.0       0.0       0.0
 0 H  dxy             0.2       0.0       0.0      32.7       9.0       1.3
 0 H  f0              1.8       0.0       3.4       0.0       0.1       0.9
 0 H  f+1             0.0       2.2       0.0       0.0       0.0       0.0
 0 H  f-1             0.0       0.0       0.0       0.6       0.2       0.0
 0 H  f+2             3.1       0.0       5.7       0.0       0.2       1.5
 0 H  f+3             0.0       3.6       0.0       0.0       0.0       0.0
 0 H  f-3             0.0       0.0       0.0       8.5       2.3       0.3
 1 H  s               0.0       6.3       0.0       0.0       0.0       0.0
 1 H  pz              9.5       0.0       8.2       0.0       4.8      32.1
 1 H  px              0.0      10.8       0.0       0.0       0.0       0.0
 1 H  py              0.1       0.0       0.0       8.2      32.1       4.8
 1 H  dz2             0.0       6.8       0.0       0.0       0.0       0.0
 1 H  dxz            35.3       0.0      32.7       0.0       1.3       9.0
 1 H  dx2y2           0.0      20.3       0.0       0.0       0.0       0.0
 1 H  dxy             0.2       0.0       0.0      32.7       9.0       1.3
 1 H  f0              1.8       0.0       3.4       0.0       0.1       0.9
 1 H  f+1             0.0       2.2       0.0       0.0       0.0       0.0
 1 H  f-1             0.0       0.0       0.0       0.6       0.2       0.0
 1 H  f+2             3.1       0.0       5.7       0.0       0.2       1.5
 1 H  f+3             0.0       3.6       0.0       0.0       0.0       0.0
 1 H  f-3             0.0       0.0       0.0       8.5       2.3       0.3

                     30        31        32        33        34        35   
                   5.11206   5.77659   5.77659   5.89056   5.89056   6.18612
                   0.00000   0.00000   0.00000   0.00000   0.00000   0.00000
                  --------  --------  --------  --------  --------  --------
 0 H  s               0.8       0.0       0.0       0.0       0.0      21.1
 0 H  px              4.5       0.0       0.0       0.0       0.0      15.0
 0 H  dz2             6.0       0.0       0.0      22.6       0.0       3.5
 0 H  dyz             0.0       0.0       0.0       0.0      30.2       0.0
 0 H  dx2y2          18.1       0.0       0.0       7.5       0.0      10.4
 0 H  f0              0.0      30.8       0.5       0.0       0.0       0.0
 0 H  f+1             7.7       0.0       0.0      12.4       0.0       0.0
 0 H  f-1             0.0       0.7      46.2       0.0       0.0       0.0
 0 H  f+2             0.0      18.5       0.3       0.0       0.0       0.0
 0 H  f-2             0.0       0.0       0.0       0.0      19.8       0.0
 0 H  f+3            12.9       0.0       0.0       7.4       0.0       0.0
 0 H  f-3             0.0       0.0       3.1       0.0       0.0       0.0
 1 H  s               0.8       0.0       0.0       0.0       0.0      21.1
 1 H  px              4.5       0.0       0.0       0.0       0.0      15.0
 1 H  dz2             6.0       0.0       0.0      22.6       0.0       3.5
 1 H  dyz             0.0       0.0       0.0       0.0      30.2       0.0
 1 H  dx2y2          18.1       0.0       0.0       7.5       0.0      10.4
 1 H  f0              0.0      30.8       0.5       0.0       0.0       0.0
 1 H  f+1             7.7       0.0       0.0      12.4       0.0       0.0
 1 H  f-1             0.0       0.7      46.2       0.0       0.0       0.0
 1 H  f+2             0.0      18.5       0.3       0.0       0.0       0.0
 1 H  f-2             0.0       0.0       0.0       0.0      19.8       0.0
 1 H  f+3            12.9       0.0       0.0       7.4       0.0       0.0
 1 H  f-3             0.0       0.0       3.1       0.0       0.0       0.0

                     36        37        38        39        40        41   
                   6.32823   6.87556   6.87556   7.11102   7.11102   7.11948
                   0.00000   0.00000   0.00000   0.00000   0.00000   0.00000
                  --------  --------  --------  --------  --------  --------
 0 H  s              13.4       0.0       0.0       0.0       0.0       0.0
 0 H  pz              0.0       0.0       0.0       7.1       0.0       0.0
 0 H  px             33.8       0.0       0.0       0.0       0.0       0.0
 0 H  py              0.0       0.0       0.0       0.0       7.1       0.0
 0 H  dz2             0.3       0.0      10.4       0.0       0.0       0.0
 0 H  dxz             0.0       0.0       0.0       7.5       0.0       0.0
 0 H  dyz             0.0      13.8       0.0       0.0       0.0       0.0
 0 H  dx2y2           0.8       0.0       3.5       0.0       0.0       0.0
 0 H  dxy             0.0       0.0       0.0       0.0       7.5       0.0
 0 H  f0              0.0       0.0       0.0      13.3       0.0      31.2
 0 H  f+1             0.6       0.0      22.6       0.0       0.0       0.0
 0 H  f-1             0.0       0.0       0.0       0.0       2.2       0.0
 0 H  f+2             0.0       0.0       0.0      22.1       0.0      18.8
 0 H  f-2             0.0      36.2       0.0       0.0       0.0       0.0
 0 H  f+3             1.1       0.0      13.6       0.0       0.0       0.0
 0 H  f-3             0.0       0.0       0.0       0.0      33.1       0.0
 1 H  s              13.4       0.0       0.0       0.0       0.0       0.0
 1 H  pz              0.0       0.0       0.0       7.1       0.0       0.0
 1 H  px             33.8       0.0       0.0       0.0       0.0       0.0
 1 H  py              0.0       0.0       0.0       0.0       7.1       0.0
 1 H  dz2             0.3       0.0      10.4       0.0       0.0       0.0
 1 H  dxz             0.0       0.0       0.0       7.5       0.0       0.0
 1 H  dyz             0.0      13.8       0.0       0.0       0.0       0.0
 1 H  dx2y2           0.8       0.0       3.5       0.0       0.0       0.0
 1 H  dxy             0.0       0.0       0.0       0.0       7.5       0.0
 1 H  f0              0.0       0.0       0.0      13.3       0.0      31.2
 1 H  f+1             0.6       0.0      22.6       0.0       0.0       0.0
 1 H  f-1             0.0       0.0       0.0       0.0       2.2       0.0
 1 H  f+2             0.0       0.0       0.0      22.1       0.0      18.8
 1 H  f-2             0.0      36.2       0.0       0.0       0.0       0.0
 1 H  f+3             1.1       0.0      13.6       0.0       0.0       0.0
 1 H  f-3             0.0       0.0       0.0       0.0      33.1       0.0

                     42        43        44        45        46        47   
                   7.11948   7.14596   7.14596   7.55657   7.56917   7.56917
                   0.00000   0.00000   0.00000   0.00000   0.00000   0.00000
                  --------  --------  --------  --------  --------  --------
 0 H  s               0.0       0.0       0.0       2.5       0.0       0.0
 0 H  pz              0.0       0.7       0.0       0.0       0.0       0.0
 0 H  px              0.0       0.0       0.0       4.5       0.0       0.0
 0 H  py              0.0       0.0       0.7       0.0       0.0       0.0
 0 H  dz2             0.0       0.0       0.0       3.7       0.0      18.0
 0 H  dxz             0.0      20.0       0.0       0.0       0.0       0.0
 0 H  dyz             0.0       0.0       0.0       0.0      24.1       0.0
 0 H  dx2y2           0.0       0.0       0.0      11.0       0.0       6.0
 0 H  dxy             0.0       0.0      20.0       0.0       0.0       0.0
 0 H  f0              0.0      10.9       0.0       0.0       0.0       0.0
 0 H  f+1             0.0       0.0       0.0      10.6       0.0      16.2
 0 H  f-1            46.9       0.0       1.8       0.0       0.0       0.0
 0 H  f+2             0.0      18.2       0.0       0.0       0.0       0.0
 0 H  f-2             0.0       0.0       0.0       0.0      25.9       0.0
 0 H  f+3             0.0       0.0       0.0      17.7       0.0       9.7
 0 H  f-3             3.1       0.1      27.3       0.0       0.0       0.0
 1 H  s               0.0       0.0       0.0       2.5       0.0       0.0
 1 H  pz              0.0       0.7       0.0       0.0       0.0       0.0
 1 H  px              0.0       0.0       0.0       4.5       0.0       0.0
 1 H  py              0.0       0.0       0.7       0.0       0.0       0.0
 1 H  dz2             0.0       0.0       0.0       3.7       0.0      18.0
 1 H  dxz             0.0      20.0       0.0       0.0       0.0       0.0
 1 H  dyz             0.0       0.0       0.0       0.0      24.1       0.0
 1 H  dx2y2           0.0       0.0       0.0      11.0       0.0       6.0
 1 H  dxy             0.0       0.0      20.0       0.0       0.0       0.0
 1 H  f0              0.0      10.9       0.0       0.0       0.0       0.0
 1 H  f+1             0.0       0.0       0.0      10.6       0.0      16.2
 1 H  f-1            46.9       0.0       1.8       0.0       0.0       0.0
 1 H  f+2             0.0      18.2       0.0       0.0       0.0       0.0
 1 H  f-2             0.0       0.0       0.0       0.0      25.9       0.0
 1 H  f+3             0.0       0.0       0.0      17.7       0.0       9.7
 1 H  f-3             3.1       0.1      27.3       0.0       0.0       0.0

                     48        49        50        51        52        53   
                   8.05357   8.48869   8.48869  10.62327  10.62327  11.37232
                   0.00000   0.00000   0.00000   0.00000   0.00000   0.00000
                  --------  --------  --------  --------  --------  --------
 0 H  s               1.6       0.0       0.0       0.0       0.0       0.0
 0 H  pz              0.0      47.2       0.4       0.0      20.1       0.0
 0 H  px              3.2       0.0       0.0       0.0       0.0       0.0
 0 H  py              0.0       0.4      47.2      20.1       0.0       0.0
 0 H  dz2             6.6       0.0       0.0       0.0       0.0      32.6
 0 H  dxz             0.0       2.4       0.0       0.0      19.6       0.0
 0 H  dx2y2          19.8       0.0       0.0       0.0       0.0      10.9
 0 H  dxy             0.0       0.0       2.4      19.6       0.0       0.0
 0 H  f0              0.0       0.0       0.0       0.0       3.8       0.0
 0 H  f+1             7.1       0.0       0.0       0.0       0.0       4.1
 0 H  f-1             0.0       0.0       0.0       0.6       0.0       0.0
 0 H  f+2             0.0       0.0       0.0       0.0       6.4       0.0
 0 H  f+3            11.8       0.0       0.0       0.0       0.0       2.4
 0 H  f-3             0.0       0.0       0.0       9.6       0.0       0.0
 1 H  s               1.6       0.0       0.0       0.0       0.0       0.0
 1 H  pz              0.0      47.2       0.4       0.0      20.1       0.0
 1 H  px              3.2       0.0       0.0       0.0       0.0       0.0
 1 H  py              0.0       0.4      47.2      20.1       0.0       0.0
 1 H  dz2             6.6       0.0       0.0       0.0       0.0      32.6
 1 H  dxz             0.0       2.4       0.0       0.0      19.6       0.0
 1 H  dx2y2          19.8       0.0       0.0       0.0       0.0      10.9
 1 H  dxy             0.0       0.0       2.4      19.6       0.0       0.0
 1 H  f0              0.0       0.0       0.0       0.0       3.8       0.0
 1 H  f+1             7.1       0.0       0.0       0.0       0.0       4.1
 1 H  f-1             0.0       0.0       0.0       0.6       0.0       0.0
 1 H  f+2             0.0       0.0       0.0       0.0       6.4       0.0
 1 H  f+3            11.8       0.0       0.0       0.0       0.0       2.4
 1 H  f-3             0.0       0.0       0.0       9.6       0.0       0.0

                     54        55        56        57        58        59   
                  11.37232  11.99288  15.08251  15.08251  15.66794  18.50546
                   0.00000   0.00000   0.00000   0.00000   0.00000   0.00000
                  --------  --------  --------  --------  --------  --------
 0 H  s               0.0      11.2       0.0       0.0      21.6      24.3
 0 H  pz              0.0       0.0      20.3       0.0       0.0       0.0
 0 H  px              0.0      21.0       0.0       0.0      21.9      11.9
 0 H  py              0.0       0.0       0.0      20.3       0.0       0.0
 0 H  dz2             0.0       2.7       0.0       0.0       1.3       3.2
 0 H  dxz             0.0       0.0      29.4       0.1       0.0       0.0
 0 H  dyz            43.5       0.0       0.0       0.0       0.0       0.0
 0 H  dx2y2           0.0       8.0       0.0       0.0       3.9       9.6
 0 H  dxy             0.0       0.0       0.1      29.4       0.0       0.0
 0 H  f+1             0.0       2.7       0.0       0.0       0.5       0.4
 0 H  f-2             6.5       0.0       0.0       0.0       0.0       0.0
 0 H  f+3             0.0       4.5       0.0       0.0       0.8       0.6
 0 H  f-3             0.0       0.0       0.0       0.1       0.0       0.0
 1 H  s               0.0      11.2       0.0       0.0      21.6      24.3
 1 H  pz              0.0       0.0      20.3       0.0       0.0       0.0
 1 H  px              0.0      21.0       0.0       0.0      21.9      11.9
 1 H  py              0.0       0.0       0.0      20.3       0.0       0.0
 1 H  dz2             0.0       2.7       0.0       0.0       1.3       3.2
 1 H  dxz             0.0       0.0      29.4       0.1       0.0       0.0
 1 H  dyz            43.5       0.0       0.0       0.0       0.0       0.0
 1 H  dx2y2           0.0       8.0       0.0       0.0       3.9       9.6
 1 H  dxy             0.0       0.0       0.1      29.4       0.0       0.0
 1 H  f+1             0.0       2.7       0.0       0.0       0.5       0.4
 1 H  f-2             6.5       0.0       0.0       0.0       0.0       0.0
 1 H  f+3             0.0       4.5       0.0       0.0       0.8       0.6
 1 H  f-3             0.0       0.0       0.0       0.1       0.0       0.0


----------------------------
LOEWDIN REDUCED ACTIVE MOs  
----------------------------

                      0         1         2         3         4         5   
                  -0.67422   0.97118   1.06116   1.18922   1.18922   3.68518
                   1.97490   0.00950   0.00676   0.00396   0.00396   0.00015
                  --------  --------  --------  --------  --------  --------
 0 H  s              47.2       9.8      35.6       0.0       0.0      17.9
 0 H  pz              0.0       0.0       0.0       0.0      47.1       0.0
 0 H  px              2.4      35.5      12.4       0.0       0.0      17.3
 0 H  py              0.0       0.0       0.0      47.1       0.0       0.0
 0 H  dx2y2           0.2       3.1       1.4       0.0       0.0       7.5
 1 H  s              47.2       9.8      35.6       0.0       0.0      17.9
 1 H  pz              0.0       0.0       0.0       0.0      47.1       0.0
 1 H  px              2.4      35.5      12.4       0.0       0.0      17.3
 1 H  py              0.0       0.0       0.0      47.1       0.0       0.0
 1 H  dx2y2           0.2       3.1       1.4       0.0       0.0       7.5

                      6         7         8         9        10        11   
                   3.40461   3.31503   3.31503   4.27400   4.28409   4.28409
                   0.00013   0.00011   0.00011   0.00009   0.00008   0.00008
                  --------  --------  --------  --------  --------  --------
 0 H  s               2.7       0.0       0.0      20.2       0.0       0.0
 0 H  pz              0.0       0.0      18.5       0.0      35.6       0.0
 0 H  px             23.7       0.0       0.0      15.1       0.0       0.0
 0 H  py              0.0      18.5       0.0       0.0       0.0      35.6
 0 H  dxz             0.0       0.0      26.2       0.0      11.7       0.0
 0 H  dx2y2          14.2       0.0       0.0       9.1       0.0       0.0
 0 H  dxy             0.0      26.2       0.0       0.0       0.0      11.7
 1 H  s               2.7       0.0       0.0      20.2       0.0       0.0
 1 H  pz              0.0       0.0      18.5       0.0      35.6       0.0
 1 H  px             23.7       0.0       0.0      15.1       0.0       0.0
 1 H  py              0.0      18.5       0.0       0.0       0.0      35.6
 1 H  dxz             0.0       0.0      26.2       0.0      11.7       0.0
 1 H  dx2y2          14.2       0.0       0.0       9.1       0.0       0.0
 1 H  dxy             0.0      26.2       0.0       0.0       0.0      11.7

                     12        13        14        15        16        17   
                   3.33937   3.33937   1.28507   1.28507   1.24090   0.29119
                   0.00008   0.00008   0.00000   0.00000   0.00000   0.00000
                  --------  --------  --------  --------  --------  --------
 0 H  s               0.0       0.0       0.0       0.0      42.4      49.7
 0 H  pz              0.0       0.0      48.3       0.0       0.0       0.0
 0 H  py              0.0       0.0       0.0      48.3       0.0       0.0
 0 H  dz2             0.0      34.3       0.0       0.0       1.4       0.0
 0 H  dyz            45.7       0.0       0.0       0.0       0.0       0.0
 0 H  dx2y2           0.0      11.4       0.0       0.0       4.1       0.1
 1 H  s               0.0       0.0       0.0       0.0      42.4      49.7
 1 H  pz              0.0       0.0      48.3       0.0       0.0       0.0
 1 H  py              0.0       0.0       0.0      48.3       0.0       0.0
 1 H  dz2             0.0      34.3       0.0       0.0       1.4       0.0
 1 H  dyz            45.7       0.0       0.0       0.0       0.0       0.0
 1 H  dx2y2           0.0      11.4       0.0       0.0       4.1       0.1

------------------------------------------------------------------------------
                           ORCA POPULATION ANALYSIS
------------------------------------------------------------------------------
Input electron density              ... H2_0_1_CASSCF-2-18_def2-qzvpp.sp.scfp
BaseName (.gbw .S,...)              ... H2_0_1_CASSCF-2-18_def2-qzvpp.sp

                    ********************************
                    * MULLIKEN POPULATION ANALYSIS *
                    ********************************

-----------------------
MULLIKEN ATOMIC CHARGES
-----------------------
   0 H :   -0.000000
   1 H :    0.000000
Sum of atomic charges:   -0.0000000

--------------------------------
MULLIKEN REDUCED ORBITAL CHARGES
--------------------------------
  0 H s       :     0.982293  s :     0.982293
      pz      :     0.001989  p :     0.017339
      px      :     0.013361
      py      :     0.001989
      dz2     :     0.000054  d :     0.000349
      dxz     :     0.000086
      dyz     :     0.000038
      dx2y2   :     0.000085
      dxy     :     0.000086
      f0      :     0.000001  f :     0.000019
      f+1     :     0.000005
      f-1     :     0.000000
      f+2     :     0.000001
      f-2     :     0.000003
      f+3     :     0.000007
      f-3     :     0.000002
  1 H s       :     0.982293  s :     0.982293
      pz      :     0.001989  p :     0.017339
      px      :     0.013361
      py      :     0.001989
      dz2     :     0.000054  d :     0.000349
      dxz     :     0.000086
      dyz     :     0.000038
      dx2y2   :     0.000085
      dxy     :     0.000086
      f0      :     0.000001  f :     0.000019
      f+1     :     0.000005
      f-1     :     0.000000
      f+2     :     0.000001
      f-2     :     0.000003
      f+3     :     0.000007
      f-3     :     0.000002

------------------------
MULLIKEN OVERLAP CHARGES
------------------------
B(  0-H ,  1-H ) :   0.8978 


                     *******************************
                     * LOEWDIN POPULATION ANALYSIS *
                     *******************************

----------------------
LOEWDIN ATOMIC CHARGES
----------------------
   0 H :   -0.000000
   1 H :    0.000000

-------------------------------
LOEWDIN REDUCED ORBITAL CHARGES
-------------------------------
  0 H s       :     0.935806  s :     0.935806
      pz      :     0.001915  p :     0.056367
      px      :     0.052536
      py      :     0.001915
      dz2     :     0.001716  d :     0.007124
      dxz     :     0.000149
      dyz     :     0.000038
      dx2y2   :     0.005072
      dxy     :     0.000149
      f0      :     0.000005  f :     0.000703
      f+1     :     0.000254
      f-1     :     0.000001
      f+2     :     0.000008
      f-2     :     0.000003
      f+3     :     0.000421
      f-3     :     0.000012
  1 H s       :     0.935806  s :     0.935806
      pz      :     0.001915  p :     0.056367
      px      :     0.052536
      py      :     0.001915
      dz2     :     0.001716  d :     0.007124
      dxz     :     0.000149
      dyz     :     0.000038
      dx2y2   :     0.005072
      dxy     :     0.000149
      f0      :     0.000005  f :     0.000703
      f+1     :     0.000254
      f-1     :     0.000001
      f+2     :     0.000008
      f-2     :     0.000003
      f+3     :     0.000421
      f-3     :     0.000012

---------------------------------
LOEWDIN BOND ORDERS (THRESH 0.050000)
---------------------------------
B(  0-H ,  1-H ) :   0.9749 


                      *****************************
                      * MAYER POPULATION ANALYSIS *
                      *****************************

  NA   - Mulliken gross atomic population
  ZA   - Total nuclear charge
  QA   - Mulliken gross atomic charge
  VA   - Mayer's total valence
  BVA  - Mayer's bonded valence
  FA   - Mayer's free valence

  ATOM       NA         ZA         QA         VA         BVA        FA
  0 H      1.0000     1.0000    -0.0000     1.0221     0.9723     0.0498
  1 H      1.0000     1.0000     0.0000     1.0221     0.9723     0.0498

  Mayer bond orders larger than 0.100000
B(  0-H ,  1-H ) :   0.9723 


-------------------------------------------------------------
 Forming the transition density       ... done in 0.002385 sec
-------------------------------------------------------------



==========================================
CASSCF UV, CD spectra and dipole moments
==========================================
-------------------
ABSORPTION SPECTRUM
-------------------

Center of mass           = (  0.4736,  0.0000,  0.0000)
Nuclear contribution to the dipole moment =     0.000000,    0.000000,    0.000000 au

Calculating the dipole integrals                  ... done
Transforming integrals                            ... done
Calculating the Linear Momentum integrals         ... done
Transforming integrals                            ... done
Calculating the Angular Momentum integrals        ... done
Transforming integrals                            ... done

Ground state mult:    1
Ground state block:   0
Ground state root:    0


------------------------------------------------------------------------------
                                 DIPOLE MOMENTS
------------------------------------------------------------------------------
  Root  Block           TX        TY        TZ           |T|
                      (Debye)   (Debye)   (Debye)      (Debye)
------------------------------------------------------------------------------
    0    0           -0.00000   0.00000  -0.00000      0.00000

--------------
CASSCF TIMINGS
--------------

Total time                       ...        4.1 sec
Sum of individual times          ...        3.9 sec ( 94.1%)

Calculation of AO operators
   F(Core) operator              ...        0.1 sec (  1.2%)
   G(Act) operator               ...        0.8 sec ( 19.3%)
   J(AO) operators               ...        0.0 sec (  0.0%)
Calculation of MO transformed quantities
   J(MO) operators               ...        2.1 sec ( 50.8%)
   (pq|rs) integrals             ...        0.0 sec (  0.0%)
   AO->MO one electron integrals ...        0.0 sec (  0.4%)
Configuration interaction steps
   CI-setup phase                ...        0.0 sec (  0.0%)
   CI-solution phase             ...        0.5 sec ( 11.1%)
   Generation of densities       ...        0.3 sec (  6.4%)
Orbital improvement steps
   Orbital gradient              ...        0.2 sec (  4.4%)
   O(1) converger                ...        0.0 sec (  0.1%)
Properties                       ...        0.0 sec (  0.2%)
   SOC integral calculation      ...        0.0 sec (  0.0%)
   SSC RMEs (incl. integrals)    ...        0.0 sec (  0.0%)
   SOC RMEs                      ...        0.0 sec (  0.0%)

-------------------------   --------------------
FINAL SINGLE POINT ENERGY        -1.103454162814
-------------------------   --------------------

Storing actual gbw-file in H2_0_1_CASSCF-2-18_def2-qzvpp.sp.001.gbw ... done

                            ***************************************
                            *     ORCA property calculations      *
                            ***************************************

                                    ---------------------
                                    Active property flags
                                    ---------------------
   (+) Dipole Moment


------------------------------------------------------------------------------
                       ORCA ELECTRIC PROPERTIES CALCULATION
------------------------------------------------------------------------------

Dipole Moment Calculation                       ... on
Quadrupole Moment Calculation                   ... off
Polarizability Calculation                      ... off
GBWName                                         ... H2_0_1_CASSCF-2-18_def2-qzvpp.sp.gbw
Electron density file                           ... H2_0_1_CASSCF-2-18_def2-qzvpp.sp.scfp
The origin for moment calculation is the CENTER OF MASS  = ( 0.473553,  0.000000  0.000000)

-------------
DIPOLE MOMENT
-------------
                                X             Y             Z
Electronic contribution:     -0.00000       0.00000      -0.00000
Nuclear contribution   :      0.00000       0.00000       0.00000
                        -----------------------------------------
Total Dipole Moment    :     -0.00000       0.00000      -0.00000
                        -----------------------------------------
Magnitude (a.u.)       :      0.00000
Magnitude (Debye)      :      0.00000



--------------------
Rotational spectrum 
--------------------
 
Rotational constants in cm-1:     0.000000   133.157724   133.157724 
Rotational constants in MHz :     0.000000 3991968.149099 3991968.149099 

 Dipole components along the rotational axes: 
x,y,z [a.u.] :    -0.000000     0.000000    -0.000000 
x,y,z [Debye]:    -0.000000     0.000000    -0.000000 

 

         *************************************************************
                                TRAJECTORY STEP   2
                RHH  :   0.60842987
         *************************************************************
---------------------------------
CARTESIAN COORDINATES (ANGSTROEM)
---------------------------------
  H      0.000000    0.000000    0.000000
  H      0.608430    0.000000    0.000000

----------------------------
CARTESIAN COORDINATES (A.U.)
----------------------------
  NO LB      ZA    FRAG     MASS         X           Y           Z
   0 H     1.0000    0     1.008    0.000000    0.000000    0.000000
   1 H     1.0000    0     1.008    1.149766    0.000000    0.000000

--------------------------------
INTERNAL COORDINATES (ANGSTROEM)
--------------------------------
 H      0   0   0     0.000000000000     0.00000000     0.00000000
 H      1   0   0     0.608429869077     0.00000000     0.00000000

---------------------------
INTERNAL COORDINATES (A.U.)
---------------------------
 H      0   0   0     0.000000000000     0.00000000     0.00000000
 H      1   0   0     1.149765824252     0.00000000     0.00000000


Diagonalization of the overlap matrix:
Smallest eigenvalue                        ... 8.441e-05
Time for diagonalization                   ...    0.002 sec
Threshold for overlap eigenvalues          ... 1.000e-08
Number of eigenvalues below threshold      ... 0
Time for construction of square roots      ...    0.002 sec
Total time needed                          ...    0.004 sec



 ... the calculation is a CASSCF calculation -I'm leaving here GOOD LUCK!!!

-------------------------------------------------------------------------------
                              ORCA-CASSCF
-------------------------------------------------------------------------------

Setting up the integral package       ... done
Building the CAS space                ... done (171 configurations for Mult=1)
----------------
GENERAL CI SETUP
----------------

Checking configurations                         ... done
Determining NSOMO,NDOMO and NVMO                ... done
Building up the tree                            ... done
Building N-1 electron tree                      ... done
Building RI configuration space                 ... done
Analyzing the RI configuration space            ... done
Determining NDOMO,NSOMO,NVMO for RI space       ... done
Determination of address arrays                 ... done
Looking for max. no of open shells              ... done
Setting up coupling coefficient container       ... Memory for address arrays  		      ... done
Make address arrays			      ... done
Memory for buffers 			      ... done
Setting up spin-function prototypes	      ... (MAXOPEN=2) 0 2 4 done
Trivial cases - DOMO's			      ... done (  0.0 MB)
Number of open shells			    ...  0
domo->virtual excitations			... done (  0.0 MB)
domo->somo excitations				... done (  0.0 MB)
somo->virtual excitations			... done (  0.0 MB)
somo->somo excitations				... done (  0.0 MB)
Number of open shells			    ...  2
domo->virtual excitations			... done (  0.0 MB)
domo->somo excitations				... done (  0.0 MB)
somo->virtual excitations			... done (  0.0 MB)
somo->somo excitations				... done (  0.0 MB)
Coupling container construction done
done
Now recording sub-block dimensions              ... done
Memory used for TGeneralCI arrays =     0.0 MB
  Original space  =     0.0
  RI       space  =     0.0
  Address arrays  =     0.0
  Coupling coeffs =     0.0
Multiplicity                          ...       1
# of electrons                        ...       2
# of orbitals                         ...      18
# of roots requested                  ...       1
Configuration space:
# of configurations                   ...     171
# of CSF's                            ...     171
# of rejected configurations          ...       0
Min. # of SOMOs                       ...       0
Max. # of SOMOs                       ...       2
Max. # of DOMOs                       ...       1
Max. # of VMOs                        ...      17
RI Configuration space:
# of configurations                   ...     171
# of CSF's                            ...     171
# of rejected configurations          ...       0
Min. # of SOMOs                       ...       0
Max. # of SOMOs                       ...       2
Max. # of DOMOs                       ...       1
Max. # of VMOs                        ...      17
(N-1) Electron Configuration space:
# of configurations                   ...      18
CSF dimensions:
      0 SOMOs give     1 CSFs
      2 SOMOs give     1 CSFs


SYSTEM-SPECIFIC SETTINGS:
Number of active electrons          ...    2
Number of active orbitals           ...   18
Total number of electrons           ...    2
Total number of orbitals            ...   60

Determined orbital ranges:
   Internal       0 -   -1 (   0 orbitals)
   Active         0 -   17 (  18 orbitals)
   External      18 -   59 (  42 orbitals)
Number of rotation parameters      ...    756

CI-STEP:
CI strategy                         ... General CI
Number of multiplicity blocks       ...    1
BLOCK  1 WEIGHT=   1.0000
  Multiplicity                      ...    1
  #(Configurations)                 ...  171
  #(CSFs)                           ...  171
  #(Roots)                          ...    1
    ROOT=0 WEIGHT=    1.000000

  PrintLevel                        ...    1
  N(GuessMat)                       ...       512
  MaxDim(CI)                        ...        10
  MaxIter(CI)                       ...        64
  Energy Tolerance CI               ...  2.50e-09
  Residual Tolerance CI             ...  2.50e-09
  Shift(CI)                         ...  1.00e-04

INTEGRAL-TRANSFORMATION-STEP:
  Algorithm                         ... EXACT

ORBITAL-IMPROVEMENT-STEP:
  Algorithm                         ... SuperCI(PT)
  Default Parametrization           ... CAYLEY
  Act-Act rotations                 ... depends on algorithm used

  Note: SuperCI(PT) will ignore FreezeIE, FreezeAct and FreezeGrad. In general Default settings are encouraged.
        In conjunction with ShiftUp, ShiftDn or GradScaling the performance of SuperCI(PT) is less optimal.  

  MaxRot                            ... 2.00e-01 
  Max. no of vectors (DIIS)         ... 15
  DThresh (cut-off) metric          ... 1.00e-06
  Switch step at gradient           ...  3.00e-02 
  Switch step at iteration          ...        50   
  Switch step to                    ... SuperCI(PT)    

SCF-SETTINGS:
  Incremental                       ... on
  RIJCOSX approximation             ... off
  RI-JK approximation               ... off
  AO integral handling              ... DIRECT
  Integral Neglect Thresh           ...  2.50e-11
  Primitive cutoff TCut             ...  2.50e-12
  Energy convergence tolerance      ...  2.50e-08
  Orbital gradient convergence      ...  2.50e-04
  Max. number of iterations         ...        75  


FINAL ORBITALS:
  Active   Orbitals                 ... natural 
  Internal Orbitals                 ... canonical 
  External Orbitals                 ... canonical 

------------------
CAS-SCF ITERATIONS
------------------


MACRO-ITERATION   1: 
   --- Inactive Energy E0 = 0.86974232 Eh
CI-ITERATION   0: 
    -1.156720627   0.000000000000 (    0.00)
   CI-PROBLEM SOLVED
   DENSITIES MADE

                 <<<<<<<<<<<<<<<<<<INITIAL CI STATE CHECK>>>>>>>>>>>>>>>>>>

BLOCK  1 MULT= 1 NROOTS= 1 
ROOT   0:  E=      -1.1567206266 Eh
      0.98376 [     0]: 200000000000000000
      0.00659 [    18]: 020000000000000000
      0.00302 [    35]: 002000000000000000

                 <<<<<<<<<<<<<<<<<<INITIAL CI STATE CHECK>>>>>>>>>>>>>>>>>>

   E(CAS)=    -1.156720627 Eh DE=     0.000000000
   --- Energy gap subspaces: Ext-Act = -3.520   Act-Int = 0.600
   N(occ)=  1.96952 0.01320 0.00783 0.00414 0.00414 0.00015 0.00036 0.00012 0.00012 0.00009 0.00008 0.00008 0.00008 0.00008 0.00000 0.00000 0.00002 0.00000
   ||g|| =      0.105871464 Max(G)=     0.097516639 Rot=59,0
   --- Orbital Update [SuperCI(PT)]
   --- Canonicalize Internal Space
   --- Canonicalize External Space
   --- SX_PT (Skipped TA=1 IT=0): ||X|| =      1.032755755 Max(X)(27,14) =     -0.467687352 
   --- SFit(Active Orbitals)

MACRO-ITERATION   2: 
   --- Inactive Energy E0 = 0.86974232 Eh
CI-ITERATION   0: 
    -1.157006625   0.000000000000 (    0.00)
   CI-PROBLEM SOLVED
   DENSITIES MADE
   E(CAS)=    -1.157006625 Eh DE=    -0.000285999
   --- Energy gap subspaces: Ext-Act = -3.312   Act-Int = 0.600
   N(occ)=  1.96905 0.01332 0.00805 0.00416 0.00416 0.00015 0.00037 0.00013 0.00013 0.00010 0.00008 0.00008 0.00008 0.00008 0.00001 0.00001 0.00003 0.00000
   ||g|| =      0.017018041 Max(G)=    -0.011824859 Rot=36,0
   --- Orbital Update [SuperCI(PT)]
[...]

                 <<<<<<<<<<<<<<<<<<INITIAL CI STATE CHECK>>>>>>>>>>>>>>>>>>

BLOCK  1 MULT= 1 NROOTS= 1 
ROOT   0:  E=      -0.9999665864 Eh
      0.50002 [     0]: 200000000000000000
      0.49998 [    18]: 020000000000000000

                 <<<<<<<<<<<<<<<<<<INITIAL CI STATE CHECK>>>>>>>>>>>>>>>>>>

   E(CAS)=    -0.999966586 Eh DE=     0.000000000
   --- Energy gap subspaces: Ext-Act = -2.231   Act-Int = 0.600
   N(occ)=  1.00004 0.99996 0.00000 0.00000 0.00000 0.00000 0.00000 0.00000 0.00000 0.00000 0.00000 0.00000 0.00000 0.00000 0.00000 0.00000 0.00000 0.00000
   ||g|| =      0.000219421 Max(G)=     0.000134185 Rot=18,1
                     ---- THE CAS-SCF GRADIENT HAS CONVERGED ----
                            --- FINALIZING ORBITALS ---
                    ---- DOING ONE FINAL ITERATION FOR PRINTING ----
   --- Forming Natural Orbitals
   --- Canonicalize Internal Space
   --- Canonicalize External Space

MACRO-ITERATION   2: 
   --- Inactive Energy E0 = 0.02652169 Eh
   --- All densities will be recomputed
CI-ITERATION   0: 
    -0.999966586   0.000000000000 (    0.00)
   CI-PROBLEM SOLVED
   DENSITIES MADE
   E(CAS)=    -0.999966586 Eh DE=     0.000000000
   --- Energy gap subspaces: Ext-Act = -2.248   Act-Int = 0.600
   N(occ)=  1.00004 0.99996 0.00000 0.00000 0.00000 0.00000 0.00000 0.00000 0.00000 0.00000 0.00000 0.00000 0.00000 0.00000 0.00000 0.00000 0.00000 0.00000
   ||g|| =      0.000219421 Max(G)=    -0.000134185 Rot=18,1
--------------
CASSCF RESULTS
--------------

Final CASSCF energy       : -0.999966586 Eh     -27.2105 eV


---------------------------------------------
CAS-SCF STATES FOR BLOCK  1 MULT= 1 NROOTS= 1
---------------------------------------------

ROOT   0:  E=      -0.9999665864 Eh
      0.50002 [     0]: 200000000000000000
      0.49998 [    18]: 020000000000000000


--------------
DENSITY MATRIX
--------------

                  0          1          2          3          4          5    
      0       1.000042  -0.000000   0.000000  -0.000000   0.000000   0.000000
      1      -0.000000   0.999958  -0.000000   0.000000  -0.000000  -0.000000
      2       0.000000  -0.000000   0.000000  -0.000000   0.000000   0.000000
      3      -0.000000   0.000000  -0.000000   0.000000   0.000000   0.000000
      4       0.000000  -0.000000   0.000000   0.000000   0.000000   0.000000
      5       0.000000  -0.000000   0.000000   0.000000   0.000000   0.000000
      6       0.000000  -0.000000  -0.000000   0.000000   0.000000   0.000000
      7       0.000000   0.000000   0.000000   0.000000  -0.000000   0.000000
      8      -0.000000  -0.000000   0.000000  -0.000000  -0.000000  -0.000000
      9      -0.000000   0.000000   0.000000  -0.000000  -0.000000   0.000000
     10       0.000000  -0.000000  -0.000000   0.000000  -0.000000   0.000000
     11       0.000000  -0.000000   0.000000  -0.000000  -0.000000  -0.000000
     12      -0.000000  -0.000000   0.000000  -0.000000  -0.000000  -0.000000
     13      -0.000000  -0.000000  -0.000000   0.000000  -0.000000  -0.000000
     14      -0.000000  -0.000000   0.000000   0.000000  -0.000000   0.000000
     15       0.000000  -0.000000   0.000000   0.000000   0.000000  -0.000000
     16       0.000000  -0.000000   0.000000   0.000000  -0.000000  -0.000000
     17      -0.000000  -0.000000  -0.000000  -0.000000  -0.000000  -0.000000
                  6          7          8          9         10         11    
      0       0.000000   0.000000  -0.000000  -0.000000   0.000000   0.000000
      1      -0.000000   0.000000  -0.000000   0.000000  -0.000000  -0.000000
      2      -0.000000   0.000000   0.000000   0.000000  -0.000000   0.000000
      3       0.000000   0.000000  -0.000000  -0.000000   0.000000  -0.000000
      4       0.000000  -0.000000  -0.000000  -0.000000  -0.000000  -0.000000
      5       0.000000   0.000000  -0.000000   0.000000   0.000000  -0.000000
      6       0.000000   0.000000  -0.000000  -0.000000  -0.000000  -0.000000
      7       0.000000   0.000000  -0.000000  -0.000000   0.000000  -0.000000
      8      -0.000000  -0.000000   0.000000  -0.000000   0.000000  -0.000000
      9      -0.000000  -0.000000  -0.000000   0.000000  -0.000000   0.000000
     10      -0.000000   0.000000   0.000000  -0.000000   0.000000  -0.000000
     11      -0.000000  -0.000000  -0.000000   0.000000  -0.000000   0.000000
     12       0.000000   0.000000  -0.000000   0.000000  -0.000000   0.000000
     13       0.000000   0.000000  -0.000000   0.000000   0.000000  -0.000000
     14      -0.000000   0.000000  -0.000000   0.000000   0.000000   0.000000
     15       0.000000  -0.000000  -0.000000  -0.000000  -0.000000  -0.000000
     16       0.000000   0.000000  -0.000000  -0.000000  -0.000000  -0.000000
     17      -0.000000  -0.000000   0.000000   0.000000   0.000000   0.000000
                 12         13         14         15         16         17    
      0      -0.000000  -0.000000  -0.000000   0.000000   0.000000  -0.000000
      1      -0.000000  -0.000000  -0.000000  -0.000000  -0.000000  -0.000000
      2       0.000000  -0.000000   0.000000   0.000000   0.000000  -0.000000
      3      -0.000000   0.000000   0.000000   0.000000   0.000000  -0.000000
      4      -0.000000  -0.000000  -0.000000   0.000000  -0.000000  -0.000000
      5      -0.000000  -0.000000   0.000000  -0.000000  -0.000000  -0.000000
      6       0.000000   0.000000  -0.000000   0.000000   0.000000  -0.000000
      7       0.000000   0.000000   0.000000  -0.000000   0.000000  -0.000000
      8      -0.000000  -0.000000  -0.000000  -0.000000  -0.000000   0.000000
      9       0.000000   0.000000   0.000000  -0.000000  -0.000000   0.000000
     10      -0.000000   0.000000   0.000000  -0.000000  -0.000000   0.000000
     11       0.000000  -0.000000   0.000000  -0.000000  -0.000000   0.000000
     12       0.000000   0.000000  -0.000000  -0.000000   0.000000  -0.000000
     13       0.000000   0.000000   0.000000  -0.000000   0.000000   0.000000
     14      -0.000000   0.000000   0.000000   0.000000   0.000000  -0.000000
     15      -0.000000  -0.000000   0.000000   0.000000  -0.000000   0.000000
     16       0.000000   0.000000   0.000000  -0.000000   0.000000  -0.000000
     17      -0.000000   0.000000  -0.000000   0.000000  -0.000000   0.000000
Trace of the electron density:  2.000000

-----------------
ENERGY COMPONENTS
-----------------

One electron energy          :     -1.053009939 Eh         -28.6539 eV
Two electron energy          :      0.026521667 Eh           0.7217 eV
Nuclear repulsion energy     :      0.026521686 Eh           0.7217 eV
                               ----------------
                                   -0.999966586

Kinetic energy               :      1.000007176 Eh          27.2116 eV
Potential energy             :     -1.999973762 Eh         -54.4221 eV
Virial ratio                 :     -1.999959411 
                               ----------------
                                   -0.999966586

Core energy                  :      0.026521686 Eh        0.7217 eV


----------------------------
LOEWDIN REDUCED ACTIVE MOs  
----------------------------

                      0         1         2         3         4         5   
                  -0.18748  -0.18746   0.57654   0.57617   0.57803   0.57803
                   1.00004   0.99996   0.00000   0.00000   0.00000   0.00000
                  --------  --------  --------  --------  --------  --------
 0 H  s              50.0      50.0       0.5       0.1       0.0       0.0
 0 H  pz              0.0       0.0       0.0       0.0      10.0      39.9
 0 H  px              0.0       0.0      49.4      49.8       0.0       0.0
 0 H  py              0.0       0.0       0.0       0.0      39.9      10.0
 1 H  s              50.0      50.0       0.5       0.1       0.0       0.0
 1 H  pz              0.0       0.0       0.0       0.0      10.0      39.9
 1 H  px              0.0       0.0      49.4      49.8       0.0       0.0
 1 H  py              0.0       0.0       0.0       0.0      39.9      10.0

                      6         7         8         9        10        11   
                   0.89492   0.89492   1.16623   0.74552   2.29683   2.29683
                   0.00000   0.00000   0.00000   0.00000   0.00000   0.00000
                  --------  --------  --------  --------  --------  --------
 0 H  s               0.0       0.0      47.7      49.6       0.0       0.0
 0 H  pz             44.5       4.9       0.0       0.0       0.0       0.0
 0 H  py              4.9      44.5       0.0       0.0       0.0       0.0
 0 H  dz2             0.0       0.0       0.2       0.0      15.8      20.4
 0 H  dyz             0.0       0.0       0.0       0.0      27.2      21.0
 0 H  dx2y2           0.0       0.0       0.6       0.0       5.3       6.8
 1 H  s               0.0       0.0      47.7      49.6       0.0       0.0
 1 H  pz             44.5       4.9       0.0       0.0       0.0       0.0
 1 H  py              4.9      44.5       0.0       0.0       0.0       0.0
 1 H  dz2             0.0       0.0       0.2       0.0      15.8      20.4
 1 H  dyz             0.0       0.0       0.0       0.0      27.2      21.0
 1 H  dx2y2           0.0       0.0       0.6       0.0       5.3       6.8

                     12        13        14        15        16        17   
                   2.41622   2.39381   2.39381   2.77927   2.70261   2.70261
                   0.00000   0.00000   0.00000   0.00000   0.00000   0.00000
                  --------  --------  --------  --------  --------  --------
 0 H  pz              0.0       6.0       0.5       0.0       8.3       0.9
 0 H  px             16.7       0.0       0.0       9.5       0.0       0.0
 0 H  py              0.0       0.5       6.0       0.0       0.9       8.3
 0 H  dz2             7.5       0.0       0.0       9.2       0.0       0.0
 0 H  dxz             0.0      37.6       3.3       0.0      34.6       3.6
 0 H  dx2y2          22.5       0.0       0.0      27.6       0.0       0.0
 0 H  dxy             0.0       3.3      37.6       0.0       3.6      34.6
 1 H  pz              0.0       6.0       0.5       0.0       8.3       0.9
 1 H  px             16.8       0.0       0.0       9.5       0.0       0.0
 1 H  py              0.0       0.5       6.0       0.0       0.9       8.3
 1 H  dz2             7.5       0.0       0.0       9.2       0.0       0.0
 1 H  dxz             0.0      37.6       3.3       0.0      34.6       3.6
 1 H  dx2y2          22.6       0.0       0.0      27.5       0.0       0.0
 1 H  dxy             0.0       3.3      37.6       0.0       3.6      34.6


-------------------------------------------------------------
 Forming the transition density       ... done in 0.002296 sec
-------------------------------------------------------------



==========================================
CASSCF UV, CD spectra and dipole moments
==========================================
-------------------
ABSORPTION SPECTRUM
-------------------

Center of mass           = ( 18.8525,  0.0000,  0.0000)
Nuclear contribution to the dipole moment =     0.000000,    0.000000,    0.000000 au

Calculating the dipole integrals                  ... done
Transforming integrals                            ... done
Calculating the Linear Momentum integrals         ... done
Transforming integrals                            ... done
Calculating the Angular Momentum integrals        ... done
Transforming integrals                            ... done

Ground state mult:    1
Ground state block:   0
Ground state root:    0


------------------------------------------------------------------------------
                                 DIPOLE MOMENTS
------------------------------------------------------------------------------
  Root  Block           TX        TY        TZ           |T|
                      (Debye)   (Debye)   (Debye)      (Debye)
------------------------------------------------------------------------------
    0    0           -0.00000   0.00000   0.00000      0.00000

--------------
CASSCF TIMINGS
--------------

Total time                       ...        0.6 sec
Sum of individual times          ...        0.5 sec ( 79.5%)

Calculation of AO operators
   F(Core) operator              ...        0.0 sec (  0.6%)
   G(Act) operator               ...        0.0 sec (  4.3%)
   J(AO) operators               ...        0.0 sec (  0.0%)
Calculation of MO transformed quantities
   J(MO) operators               ...        0.2 sec ( 35.5%)
   (pq|rs) integrals             ...        0.0 sec (  0.0%)
   AO->MO one electron integrals ...        0.0 sec (  0.1%)
Configuration interaction steps
   CI-setup phase                ...        0.0 sec (  0.2%)
   CI-solution phase             ...        0.1 sec ( 18.5%)
   Generation of densities       ...        0.1 sec ( 12.6%)
Orbital improvement steps
   Orbital gradient              ...        0.0 sec (  6.6%)
Properties                       ...        0.0 sec (  1.2%)
   SOC integral calculation      ...        0.0 sec (  0.0%)
   SSC RMEs (incl. integrals)    ...        0.0 sec (  0.0%)
   SOC RMEs                      ...        0.0 sec (  0.0%)

-------------------------   --------------------
FINAL SINGLE POINT ENERGY        -0.999966586391
-------------------------   --------------------

Storing actual gbw-file in H2_0_1_CASSCF-2-18_def2-qzvpp.sp.020.gbw ... done

                            ***************************************
                            *     ORCA property calculations      *
                            ***************************************

                                    ---------------------
                                    Active property flags
                                    ---------------------
   (+) Dipole Moment


------------------------------------------------------------------------------
                       ORCA ELECTRIC PROPERTIES CALCULATION
------------------------------------------------------------------------------

Dipole Moment Calculation                       ... on
Quadrupole Moment Calculation                   ... off
Polarizability Calculation                      ... off
GBWName                                         ... H2_0_1_CASSCF-2-18_def2-qzvpp.sp.gbw
Electron density file                           ... H2_0_1_CASSCF-2-18_def2-qzvpp.sp.scfp
The origin for moment calculation is the CENTER OF MASS  = (18.852497,  0.000000  0.000000)

-------------
DIPOLE MOMENT
-------------
                                X             Y             Z
Electronic contribution:     -0.00000       0.00000       0.00000
Nuclear contribution   :     -0.00000       0.00000       0.00000
                        -----------------------------------------
Total Dipole Moment    :     -0.00000       0.00000       0.00000
                        -----------------------------------------
Magnitude (a.u.)       :      0.00000
Magnitude (Debye)      :      0.00000



--------------------
Rotational spectrum 
--------------------
 
Rotational constants in cm-1:     0.000000     0.084017     0.084017 
Rotational constants in MHz :     0.000000  2518.761623  2518.761623 

 Dipole components along the rotational axes: 
x,y,z [a.u.] :    -0.000000     0.000000     0.000000 
x,y,z [Debye]:    -0.000000     0.000000     0.000000 

 
                              **** TRAJECTORY DONE ***

                         SUMMARY OF THE CALCULATED SURFACE

------------------
TRAJECTORY RESULTS
------------------

Column   1: RHH

The Calculated Surface using the 'Actual Energy'
   0.50118723  -1.10345416
   0.60842987  -1.15712609
   0.73861998  -1.17313210
   0.89666781  -1.16161006
   1.08853427  -1.13190185
   1.32145577  -1.09314364
   1.60421716  -1.05443931
   1.94748304  -1.02448902
   2.36419999  -1.00788942
   2.87008485  -1.00174166
   3.48421754  -1.00024357
   4.22976062  -1.00000071
   5.13483291  -0.99997187
   6.23357002  -0.99996792
   7.56741181  -0.99996698
   9.18666532  -0.99996671
  11.15240214  -0.99996662
  13.53876180  -0.99996660
  16.43574799  -0.99996659
  19.95262315  -0.99996659

                        *******************************
                        *   FIT OF THE ACT-ENERGY PES *
                        *******************************
-------------------------------
POTENTIAL ENERGY SURFACE =   0
-------------------------------

Minimum found after 12 iterations
Equilibrium distance and its energy from the interpolated PES:
  Re      =   0.72591 Angstroem  (  1.37178 Bohr)
  E(Re)   =    -1.173222 Eh 
  dE/dR   = 5.121e-10 (-1.145e-01 CHEB)
  d2E/dR2 =    0.345498 (   0.798142 CHEB) (  -0.013039 NUM)
  d3E/dR3 =   -4.157128 (  -3.007264 CHEB)

Spectroscopic constants:
  we =    4273.1 cm**-1 (based on SPLINE)
  we =    6494.7 cm**-1 (based on CHEB)
  we =      -nan cm**-1 (based on NUM)

Performing Morse fit ...
Morse-Fit Results:
 Te(adiabatic)   =    -357.9 cm**-1         = -0.044 eV
 d2E/dR**2 (Morse)=      0.410375093 
 d3E/dR**3 (Morse)=     -1.330543264 
 d4E/dR**4 (Morse)=      3.355309122 
 E0               =     -1.174852639 Eh  RMS=2.07e-06
 Re               =   0.74336 Angstroem      =  1.40475 Bohr RMS=6.90e-06)
 De(Morse)        =   4.78022 eV             =  38555.1 cm**-1 RMS=2.06e-06
 D0(Morse)        =   4.49152 eV
 beta             =   1.08075 au          RMS=1.34e-05
 we               =   4657.0 cm**-1
 wexe             =    140.6 cm**-1
 Displacement   =    0.0174 Angstroem      =  0.03297 Bohr

The Calculated Surface using the SCF energy
   0.50118723  -1.10345416
   0.60842987  -1.15712609
   0.73861998  -1.17313210
   0.89666781  -1.16161006
   1.08853427  -1.13190185
   1.32145577  -1.09314364
   1.60421716  -1.05443931
   1.94748304  -1.02448902
   2.36419999  -1.00788942
   2.87008485  -1.00174166
   3.48421754  -1.00024357
   4.22976062  -1.00000071
   5.13483291  -0.99997187
   6.23357002  -0.99996792
   7.56741181  -0.99996698
   9.18666532  -0.99996671
  11.15240214  -0.99996662
  13.53876180  -0.99996660
  16.43574799  -0.99996659
  19.95262315  -0.99996659

                        *******************************
                        *       FIT OF THE SCF PES    *
                        *******************************
-------------------------------
POTENTIAL ENERGY SURFACE =   0
-------------------------------

Minimum found after 12 iterations
Equilibrium distance and its energy from the interpolated PES:
  Re      =   0.72591 Angstroem  (  1.37178 Bohr)
  E(Re)   =    -1.173222 Eh 
  dE/dR   = 5.121e-10 (-1.145e-01 CHEB)
  d2E/dR2 =    0.345498 (   0.798142 CHEB) (  -0.013039 NUM)
  d3E/dR3 =   -4.157128 (  -3.007264 CHEB)

Spectroscopic constants:
  we =    4273.1 cm**-1 (based on SPLINE)
  we =    6494.7 cm**-1 (based on CHEB)
  we =      -nan cm**-1 (based on NUM)

Performing Morse fit ...
Morse-Fit Results:
 Te(adiabatic)   =    -357.9 cm**-1         = -0.044 eV
 d2E/dR**2 (Morse)=      0.410375093 
 d3E/dR**3 (Morse)=     -1.330543264 
 d4E/dR**4 (Morse)=      3.355309122 
 E0               =     -1.174852639 Eh  RMS=2.07e-06
 Re               =   0.74336 Angstroem      =  1.40475 Bohr RMS=6.90e-06)
 De(Morse)        =   4.78022 eV             =  38555.1 cm**-1 RMS=2.06e-06
 D0(Morse)        =   4.49152 eV
 beta             =   1.08075 au          RMS=1.34e-05
 we               =   4657.0 cm**-1
 wexe             =    140.6 cm**-1
 Displacement   =    0.0174 Angstroem      =  0.03297 Bohr


Timings for individual modules:

Sum of individual times         ...      111.856 sec (=   1.864 min)
GTO integral calculation        ...        5.044 sec (=   0.084 min)   4.5 %
SCF iterations                  ...        0.989 sec (=   0.016 min)   0.9 %
CASSCF iterations               ...      105.823 sec (=   1.764 min)  94.6 %
                             ****ORCA TERMINATED NORMALLY****
TOTAL RUN TIME: 0 days 0 hours 1 minutes 54 seconds 81 msec
