
                                 *****************
                                 * O   R   C   A *
                                 *****************

           --- An Ab Initio, DFT and Semiempirical electronic structure package ---

                  #######################################################
                  #                        -***-                        #
                  #          Department of theory and spectroscopy      #
                  #               Directorship: Frank Neese             #
                  #        Max Planck Institute fuer Kohlenforschung    #
                  #                Kaiser Wilhelm Platz 1               #
                  #                 D-45470 Muelheim/Ruhr               #
                  #                      Germany                        #
                  #                                                     #
                  #                  All rights reserved                #
                  #                        -***-                        #
                  #######################################################


                         Program Version 4.2.0 -  RELEASE  -


 With contributions from (in alphabetic order):
   Daniel Aravena         : Magnetic Suceptibility
   Michael Atanasov       : Ab Initio Ligand Field Theory (pilot matlab implementation)
   Alexander A. Auer      : GIAO ZORA, VPT2
   Ute Becker             : Parallelization
   Giovanni Bistoni       : ED, misc. LED, open-shell LED, HFLED
   Martin Brehm           : Molecular dynamics
   Dmytro Bykov           : SCF Hessian
   Vijay G. Chilkuri      : MRCI spin determinant printing, contributions to CSF-ICE
   Dipayan Datta          : RHF DLPNO-CCSD density
   Achintya Kumar Dutta   : EOM-CC, STEOM-CC
   Dmitry Ganyushin       : Spin-Orbit,Spin-Spin,Magnetic field MRCI
   Miquel Garcia          : C-PCM Hessian, Gaussian charge scheme
   Yang Guo               : DLPNO-NEVPT2, CIM, IAO-localization
   Andreas Hansen         : Spin unrestricted coupled pair/coupled cluster methods
   Benjamin Helmich-Paris : CASSCF linear response (MC-RPA)
   Lee Huntington         : MR-EOM, pCC
   Robert Izsak           : Overlap fitted RIJCOSX, COSX-SCS-MP3, EOM
   Christian Kollmar      : KDIIS, OOCD, Brueckner-CCSD(T), CCSD density
   Simone Kossmann        : Meta GGA functionals, TD-DFT gradient, OOMP2, MP2 Hessian
   Martin Krupicka        : AUTO-CI
   Lucas Lang             : DCDCAS
   Dagmar Lenk            : GEPOL surface, SMD
   Dimitrios Liakos       : Extrapolation schemes; Compound Job, initial MDCI parallelization
   Dimitrios Manganas     : Further ROCIS development; embedding schemes
   Dimitrios Pantazis     : SARC Basis sets
   Taras Petrenko         : DFT Hessian,TD-DFT gradient, ASA, ECA, R-Raman, ABS, FL, XAS/XES, NRVS
   Peter Pinski           : DLPNO-MP2, DLPNO-MP2 Gradient
   Christoph Reimann      : Effective Core Potentials
   Marius Retegan         : Local ZFS, SOC
   Christoph Riplinger    : Optimizer, TS searches, QM/MM, DLPNO-CCSD(T), (RO)-DLPNO pert. Triples
   Tobias Risthaus        : Range-separated hybrids, TD-DFT gradient, RPA, STAB
   Michael Roemelt        : Original ROCIS implementation
   Masaaki Saitow         : Open-shell DLPNO-CCSD energy and density
   Barbara Sandhoefer     : DKH picture change effects
   Avijit Sen             : IP-ROCIS
   Kantharuban Sivalingam : CASSCF convergence, NEVPT2, FIC-MRCI
   Bernardo de Souza      : ESD, SOC TD-DFT
   Georgi Stoychev        : AutoAux, RI-MP2 NMR
   Willem Van den Heuvel  : Paramagnetic NMR
   Boris Wezisla          : Elementary symmetry handling
   Frank Wennmohs         : Technical directorship


 We gratefully acknowledge several colleagues who have allowed us to
 interface, adapt or use parts of their codes:
   Stefan Grimme, W. Hujo, H. Kruse,             : VdW corrections, initial TS optimization,
                  C. Bannwarth                     DFT functionals, gCP, sTDA/sTD-DF
   Ed Valeev, F. Pavosevic, A. Kumar             : LibInt (2-el integral package), F12 methods
   Garnet Chan, S. Sharma, J. Yang, R. Olivares  : DMRG
   Ulf Ekstrom                                   : XCFun DFT Library
   Mihaly Kallay                                 : mrcc  (arbitrary order and MRCC methods)
   Andreas Klamt, Michael Diedenhofen            : otool_cosmo (COSMO solvation model)
   Jiri Pittner, Ondrej Demel                    : Mk-CCSD
   Frank Weinhold                                : gennbo (NPA and NBO analysis)
   Christopher J. Cramer and Donald G. Truhlar   : smd solvation model
   Lars Goerigk                                  : TD-DFT with DH, B97 family of functionals
   V. Asgeirsson, H. Jonsson                     : NEB implementation
   FAccTs GmbH                                   : IRC, NEB, NEB-TS, Multilevel, MM, QM/MM, CI optimization
   S Lehtola, MJT Oliveira, MAL Marques          : LibXC Library


 Your calculation uses the libint2 library for the computation of 2-el integrals
 For citations please refer to: http://libint.valeyev.net

 Your ORCA version has been built with support for libXC version: 4.2.3
 For citations please refer to: https://tddft.org/programs/libxc/

 This ORCA versions uses:
   CBLAS   interface :  Fast vector & matrix operations
   LAPACKE interface :  Fast linear algebra routines
   SCALAPACK package :  Parallel linear algebra routines


----- Orbital basis set information -----
Your calculation utilizes the basis: def2-QZVPP
   F. Weigend and R. Ahlrichs, Phys. Chem. Chem. Phys. 7, 3297 (2005).

================================================================================
                                        WARNINGS
                       Please study these warnings very carefully!
================================================================================


INFO   : the flag for use of LIBINT has been found!

================================================================================
                                       INPUT FILE
================================================================================
NAME = H2_0_1_CASSCF-2-10_def2-qzvpp.sp.inp
|  1> !rhf def2-qzvpp tightscf 
|  2> !normalprint
|  3> 
|  4> %paras
|  5> #  rHH [19.952623149688797 16.43574799372698 13.538761800225439 11.152402139117903 9.1866653175426 7.567411809920191 6.233570019315557 5.134832907437553 4.229760619613384 3.4842175435383975 2.870084854071569 2.3641999865500756 1.9474830399087562 1.6042171611153242 1.32145576997553 1.088534267260644 0.8966678097917788 0.7386199822079362 0.6084298690766428 0.5011872336272722]
|  6>   rHH [0.5011872336272722 0.6084298690766428 0.7386199822079362 0.8966678097917788 1.088534267260644 1.32145576997553 1.6042171611153242 1.9474830399087562 2.3641999865500756 2.870084854071569 3.4842175435383975 4.229760619613384 5.134832907437553 6.233570019315557 7.567411809920191 9.1866653175426 11.152402139117903 13.538761800225439 16.43574799372698 19.952623149688797]
|  7> end
|  8> 
|  9> %scf
| 10>   maxiter 500
| 11> end
| 12> 
| 13> %casscf
| 14>   nel 2
| 15>   norb 10
| 16> end
| 17> 
| 18> *int 0 1
| 19> H 0 0 0 0 0 0
| 20> H 1 0 0 {rHH} 0 0
| 21> *
| 22> 
| 23>                          ****END OF INPUT****
================================================================================

                       ******************************
                       * Parameter Scan Calculation *
                       ******************************

Trajectory settings:
    -> SCF surface will be mapped

There are 1 parameter(s) to be scanned
           RHH: user defined at 20 points
There will be   20 energy evaluations


         *************************************************************
                                TRAJECTORY STEP   1
                RHH  :   0.50118723
         *************************************************************
---------------------------------
CARTESIAN COORDINATES (ANGSTROEM)
---------------------------------
  H      0.000000    0.000000    0.000000
  H      0.501187    0.000000    0.000000

----------------------------
CARTESIAN COORDINATES (A.U.)
----------------------------
  NO LB      ZA    FRAG     MASS         X           Y           Z
   0 H     1.0000    0     1.008    0.000000    0.000000    0.000000
   1 H     1.0000    0     1.008    0.947107    0.000000    0.000000

--------------------------------
INTERNAL COORDINATES (ANGSTROEM)
--------------------------------
 H      0   0   0     0.000000000000     0.00000000     0.00000000
 H      1   0   0     0.501187233627     0.00000000     0.00000000

---------------------------
INTERNAL COORDINATES (A.U.)
---------------------------
 H      0   0   0     0.000000000000     0.00000000     0.00000000
 H      1   0   0     0.947106613373     0.00000000     0.00000000

---------------------
BASIS SET INFORMATION
---------------------
There are 1 groups of distinct atoms

 Group   1 Type H   : 7s3p2d1f contracted to 4s3p2d1f pattern {4111/111/11/1}

Atom   0H    basis set group =>   1
Atom   1H    basis set group =>   1
------------------------------------------------------------------------------
                           ORCA GTO INTEGRAL CALCULATION
------------------------------------------------------------------------------

                         BASIS SET STATISTICS AND STARTUP INFO

 # of primitive gaussian shells          ...   26
 # of primitive gaussian functions       ...   66
 # of contracted shells                  ...   20
 # of contracted basis functions         ...   60
 Highest angular momentum                ...    3
 Maximum contraction depth               ...    4
 Integral package used                   ... LIBINT
 Integral threshhold            Thresh   ...  2.500e-11
 Primitive cut-off              TCut     ...  2.500e-12


------------------------------ INTEGRAL EVALUATION ----------------------------


 * One electron integrals 
 Pre-screening matrix                    ... done
 Shell pair data                         ... done (   0.000 sec)

-------------------------------------------------------------------------------
                                 ORCA SCF
-------------------------------------------------------------------------------

------------
SCF SETTINGS
------------
Hamiltonian:
 Ab initio Hamiltonian  Method          .... Hartree-Fock(GTOs)


General Settings:
 Integral files         IntName         .... H2_0_1_CASSCF-2-10_def2-qzvpp.sp
 Hartree-Fock type      HFTyp           .... CASSCF
 Total Charge           Charge          ....    0
 Multiplicity           Mult            ....    1
 Number of Electrons    NEL             ....    2
 Basis Dimension        Dim             ....   60
 Nuclear Repulsion      ENuc            ....      1.0558473417 Eh


Diagonalization of the overlap matrix:
Smallest eigenvalue                        ... 5.708e-05
Time for diagonalization                   ...    0.074 sec
Threshold for overlap eigenvalues          ... 1.000e-08
Number of eigenvalues below threshold      ... 0
Time for construction of square roots      ...    0.003 sec
Total time needed                          ...    0.077 sec

-------------------
DFT GRID GENERATION
-------------------

General Integration Accuracy     IntAcc      ...  4.340
Radial Grid Type                 RadialGrid  ... Gauss-Chebyshev
Angular Grid (max. acc.)         AngularGrid ... Lebedev-110
Angular grid pruning method      GridPruning ... 3 (G Style)
Weight generation scheme         WeightScheme... Becke
Basis function cutoff            BFCut       ...    1.0000e-11
Integration weight cutoff        WCut        ...    1.0000e-14
Grids for H and He will be reduced by one unit

# of grid points (after initial pruning)     ...   1588 (   0.0 sec)
# of grid points (after weights+screening)   ...   1560 (   0.0 sec)
nearest neighbour list constructed           ...    0.0 sec
Grid point re-assignment to atoms done       ...    0.0 sec
Grid point division into batches done        ...    0.0 sec
Reduced shell lists constructed in    0.0 sec

Total number of grid points                  ...     1560
Total number of batches                      ...       26
Average number of points per batch           ...       60
Average number of grid points per atom       ...      780
Average number of shells per batch           ...    19.15 (95.74%)
Average number of basis functions per batch  ...    57.44 (95.74%)
Average number of large shells per batch     ...    18.78 (98.07%)
Average number of large basis fcns per batch ...    56.19 (97.81%)
Maximum spatial batch extension              ...  15.26, 21.59, 21.59 au
Average spatial batch extension              ...   4.46,  7.66,  7.77 au

Time for grid setup =    0.007 sec

------------------------------
INITIAL GUESS: MODEL POTENTIAL
------------------------------
Loading Hartree-Fock densities                     ... done
Calculating cut-offs                               ... done
Setting up the integral package                    ... done
Initializing the effective Hamiltonian             ... done
Starting the Coulomb interaction                   ... done (   0.0 sec)
Reading the grid                                   ... done
Mapping shells                                     ... done
Starting the XC term evaluation                    ... done (   0.0 sec)
Transforming the Hamiltonian                       ... done (   0.0 sec)
Diagonalizing the Hamiltonian                      ... done (   0.0 sec)
Back transforming the eigenvectors                 ... done (   0.0 sec)
Now organizing SCF variables                       ... done
                      ------------------
                      INITIAL GUESS DONE (   0.1 sec)
                      ------------------


 ... the calculation is a CASSCF calculation -I'm leaving here GOOD LUCK!!!

-------------------------------------------------------------------------------
                              ORCA-CASSCF
-------------------------------------------------------------------------------

Setting up the integral package       ... done
Building the CAS space                ... done (55 configurations for Mult=1)
----------------
GENERAL CI SETUP
----------------

Checking configurations                         ... done
Determining NSOMO,NDOMO and NVMO                ... done
Building up the tree                            ... done
Building N-1 electron tree                      ... done
Building RI configuration space                 ... done
Analyzing the RI configuration space            ... done
Determining NDOMO,NSOMO,NVMO for RI space       ... done
Determination of address arrays                 ... done
Looking for max. no of open shells              ... done
Setting up coupling coefficient container       ... Memory for address arrays  		      ... done
Make address arrays			      ... done
Memory for buffers 			      ... done
Setting up spin-function prototypes	      ... (MAXOPEN=2) 0 2 4 done
Trivial cases - DOMO's			      ... done (  0.0 MB)
Number of open shells			    ...  0
domo->virtual excitations			... done (  0.0 MB)
domo->somo excitations				... done (  0.0 MB)
somo->virtual excitations			... done (  0.0 MB)
somo->somo excitations				... done (  0.0 MB)
Number of open shells			    ...  2
domo->virtual excitations			... done (  0.0 MB)
domo->somo excitations				... done (  0.0 MB)
somo->virtual excitations			... done (  0.0 MB)
somo->somo excitations				... done (  0.0 MB)
Coupling container construction done
done
Now recording sub-block dimensions              ... done
Memory used for TGeneralCI arrays =     0.0 MB
  Original space  =     0.0
  RI       space  =     0.0
  Address arrays  =     0.0
  Coupling coeffs =     0.0
Multiplicity                          ...       1
# of electrons                        ...       2
# of orbitals                         ...      10
# of roots requested                  ...       1
Configuration space:
# of configurations                   ...      55
# of CSF's                            ...      55
# of rejected configurations          ...       0
Min. # of SOMOs                       ...       0
Max. # of SOMOs                       ...       2
Max. # of DOMOs                       ...       1
Max. # of VMOs                        ...       9
RI Configuration space:
# of configurations                   ...      55
# of CSF's                            ...      55
# of rejected configurations          ...       0
Min. # of SOMOs                       ...       0
Max. # of SOMOs                       ...       2
Max. # of DOMOs                       ...       1
Max. # of VMOs                        ...       9
(N-1) Electron Configuration space:
# of configurations                   ...      10
CSF dimensions:
      0 SOMOs give     1 CSFs
      2 SOMOs give     1 CSFs


SYSTEM-SPECIFIC SETTINGS:
Number of active electrons          ...    2
Number of active orbitals           ...   10
Total number of electrons           ...    2
Total number of orbitals            ...   60

Determined orbital ranges:
   Internal       0 -   -1 (   0 orbitals)
   Active         0 -    9 (  10 orbitals)
   External      10 -   59 (  50 orbitals)
Number of rotation parameters      ...    500

CI-STEP:
CI strategy                         ... General CI
Number of multiplicity blocks       ...    1
BLOCK  1 WEIGHT=   1.0000
  Multiplicity                      ...    1
  #(Configurations)                 ...   55
  #(CSFs)                           ...   55
  #(Roots)                          ...    1
    ROOT=0 WEIGHT=    1.000000

  PrintLevel                        ...    1
  N(GuessMat)                       ...       512
  MaxDim(CI)                        ...        10
  MaxIter(CI)                       ...        64
  Energy Tolerance CI               ...  2.50e-09
  Residual Tolerance CI             ...  2.50e-09
  Shift(CI)                         ...  1.00e-04

INTEGRAL-TRANSFORMATION-STEP:
  Algorithm                         ... EXACT

ORBITAL-IMPROVEMENT-STEP:
  Algorithm                         ... SuperCI(PT)
  Default Parametrization           ... CAYLEY
  Act-Act rotations                 ... depends on algorithm used

  Note: SuperCI(PT) will ignore FreezeIE, FreezeAct and FreezeGrad. In general Default settings are encouraged.
        In conjunction with ShiftUp, ShiftDn or GradScaling the performance of SuperCI(PT) is less optimal.  

  MaxRot                            ... 2.00e-01 
  Max. no of vectors (DIIS)         ... 15
  DThresh (cut-off) metric          ... 1.00e-06
  Switch step at gradient           ...  3.00e-02 
  Switch step at iteration          ...        50   
  Switch step to                    ... SuperCI(PT)    

SCF-SETTINGS:
  Incremental                       ... on
  RIJCOSX approximation             ... off
  RI-JK approximation               ... off
  AO integral handling              ... DIRECT
  Integral Neglect Thresh           ...  2.50e-11
  Primitive cutoff TCut             ...  2.50e-12
  Energy convergence tolerance      ...  2.50e-08
  Orbital gradient convergence      ...  2.50e-04
  Max. number of iterations         ...        75  


FINAL ORBITALS:
  Active   Orbitals                 ... natural 
  Internal Orbitals                 ... canonical 
  External Orbitals                 ... canonical 

------------------
CAS-SCF ITERATIONS
------------------


MACRO-ITERATION   1: 
   --- Inactive Energy E0 = 1.05584734 Eh
CI-ITERATION   0: 
    -1.080108634   0.000000000000 (    0.00)
   CI-PROBLEM SOLVED
   DENSITIES MADE

                 <<<<<<<<<<<<<<<<<<INITIAL CI STATE CHECK>>>>>>>>>>>>>>>>>>

BLOCK  1 MULT= 1 NROOTS= 1 
ROOT   0:  E=      -1.0801086335 Eh
      0.98395 [     0]: 2000000000
      0.00525 [     2]: 1010000000

                 <<<<<<<<<<<<<<<<<<INITIAL CI STATE CHECK>>>>>>>>>>>>>>>>>>

   E(CAS)=    -1.080108634 Eh DE=     0.000000000
   --- Energy gap subspaces: Ext-Act = 0.066   Act-Int = 0.600
   N(occ)=  1.97627 0.00226 0.00810 0.00235 0.00235 0.00268 0.00125 0.00001 0.00001 0.00471
   ||g|| =      0.171293580 Max(G)=     0.141791244 Rot=24,0
   --- Orbital Update [SuperCI(PT)]
   --- Canonicalize Internal Space
   --- Canonicalize External Space
   --- SX_PT (Skipped TA=1 IT=0): ||X|| =      2.498477579 Max(X)(16,7) =     -0.979659334 
   --- SFit(Active Orbitals)

MACRO-ITERATION   2: 
   --- Inactive Energy E0 = 1.05584734 Eh
CI-ITERATION   0: 
    -1.092562201   0.000000000000 (    0.00)
   CI-PROBLEM SOLVED
   DENSITIES MADE
   E(CAS)=    -1.092562201 Eh DE=    -0.012453567
   --- Energy gap subspaces: Ext-Act = -0.824   Act-Int = 0.600
   N(occ)=  1.96948 0.00489 0.00461 0.00407 0.00407 0.00579 0.00201 0.00008 0.00008 0.00492
   ||g|| =      0.115571308 Max(G)=     0.069430921 Rot=24,0
   --- Orbital Update [SuperCI(PT)]
   --- Canonicalize Internal Space
   --- Canonicalize External Space
   --- SX_PT (Skipped TA=1 IT=0): ||X|| =      1.287033519 Max(X)(18,6) =     -0.524722401 
   --- SFit(Active Orbitals)

MACRO-ITERATION   3: 
   --- Inactive Energy E0 = 1.05584734 Eh
CI-ITERATION   0: 
    -1.100514656   0.000000000000 (    0.00)
   CI-PROBLEM SOLVED
   DENSITIES MADE
   E(CAS)=    -1.100514656 Eh DE=    -0.007952456
   --- Energy gap subspaces: Ext-Act = -2.247   Act-Int = 0.600
   N(occ)=  1.97092 0.00398 0.00375 0.00425 0.00425 0.00516 0.00277 0.00013 0.00013 0.00466
   ||g|| =      0.064056229 Max(G)=    -0.051010076 Rot=18,0
   --- Orbital Update [SuperCI(PT)]
   --- Canonicalize Internal Space
   --- Canonicalize External Space
   --- SX_PT (Skipped TA=1 IT=0): ||X|| =      0.432274576 Max(X)(13,7) =      0.219257239 
   --- SFit(Active Orbitals)

MACRO-ITERATION   4: 
   --- Inactive Energy E0 = 1.05584734 Eh
CI-ITERATION   0: 
    -1.101633206   0.000000000000 (    0.00)
   CI-PROBLEM SOLVED
   DENSITIES MADE
   E(CAS)=    -1.101633206 Eh DE=    -0.001118550
   --- Energy gap subspaces: Ext-Act = -2.299   Act-Int = 0.600
   N(occ)=  1.97110 0.00402 0.00382 0.00396 0.00396 0.00516 0.00290 0.00012 0.00012 0.00483
   ||g|| =      0.012307481 Max(G)=    -0.007828031 Rot=44,0
   --- Orbital Update [SuperCI(PT)]
   --- Canonicalize Internal Space
   --- Canonicalize External Space
   --- SX_PT (Skipped TA=1 IT=0): ||X|| =      0.058900011 Max(X)(10,9) =      0.026694384 
   --- SFit(Active Orbitals)

MACRO-ITERATION   5: 
   --- Inactive Energy E0 = 1.05584734 Eh
CI-ITERATION   0: 
    -1.101658963   0.000000000000 (    0.00)
   CI-PROBLEM SOLVED
   DENSITIES MADE
   E(CAS)=    -1.101658963 Eh DE=    -0.000025756
   --- Energy gap subspaces: Ext-Act = -2.316   Act-Int = 0.600
   N(occ)=  1.97078 0.00411 0.00393 0.00397 0.00397 0.00524 0.00288 0.00012 0.00012 0.00488
   ||g|| =      0.004637200 Max(G)=    -0.002891347 Rot=44,0
   --- Orbital Update [SuperCI(PT)]
   --- Canonicalize Internal Space
   --- Canonicalize External Space
   --- SX_PT (Skipped TA=1 IT=0): ||X|| =      0.037325402 Max(X)(12,8) =     -0.017828761 
   --- SFit(Active Orbitals)

MACRO-ITERATION   6: 
   --- Inactive Energy E0 = 1.05584734 Eh
CI-ITERATION   0: 
    -1.101661419   0.000000000000 (    0.00)
   CI-PROBLEM SOLVED
   DENSITIES MADE
   E(CAS)=    -1.101661419 Eh DE=    -0.000002457
   --- Energy gap subspaces: Ext-Act = -2.455   Act-Int = 0.600
   N(occ)=  1.97091 0.00411 0.00395 0.00390 0.00390 0.00524 0.00285 0.00012 0.00012 0.00490
   ||g|| =      0.004845912 Max(G)=     0.002885698 Rot=18,0
   --- Orbital Update [SuperCI(PT)]
   --- Canonicalize Internal Space
   --- Canonicalize External Space
   --- SX_PT (Skipped TA=1 IT=0): ||X|| =      0.033409226 Max(X)(12,8) =     -0.015029471 
   --- SFit(Active Orbitals)

MACRO-ITERATION   7: 
   --- Inactive Energy E0 = 1.05584734 Eh
CI-ITERATION   0: 
    -1.101666027   0.000000000000 (    0.00)
   CI-PROBLEM SOLVED
   DENSITIES MADE
   E(CAS)=    -1.101666027 Eh DE=    -0.000004608
   --- Energy gap subspaces: Ext-Act = -2.449   Act-Int = 0.600
   N(occ)=  1.97082 0.00412 0.00397 0.00392 0.00392 0.00525 0.00285 0.00012 0.00012 0.00490
   ||g|| =      0.000815004 Max(G)=    -0.000649200 Rot=48,0
   --- Orbital Update [SuperCI(PT)]
   --- Canonicalize Internal Space
   --- Canonicalize External Space
   --- SX_PT (Skipped TA=1 IT=0): ||X|| =      0.004702319 Max(X)(13,7) =     -0.002315709 
   --- SFit(Active Orbitals)

MACRO-ITERATION   8: 
   --- Inactive Energy E0 = 1.05584734 Eh
CI-ITERATION   0: 
    -1.101666122   0.000000000000 (    0.00)
   CI-PROBLEM SOLVED
   DENSITIES MADE
   E(CAS)=    -1.101666122 Eh DE=    -0.000000095
   --- Energy gap subspaces: Ext-Act = -2.472   Act-Int = 0.600
   N(occ)=  1.97081 0.00412 0.00399 0.00392 0.00392 0.00525 0.00285 0.00012 0.00012 0.00491
   ||g|| =      0.000299764 Max(G)=    -0.000213913 Rot=30,0
   --- Orbital Update [SuperCI(PT)]
   --- Canonicalize Internal Space
   --- Canonicalize External Space
   --- SX_PT (Skipped TA=1 IT=0): ||X|| =      0.001600178 Max(X)(13,7) =      0.000729523 
   --- SFit(Active Orbitals)

MACRO-ITERATION   9: 
   --- Inactive Energy E0 = 1.05584734 Eh
CI-ITERATION   0: 
    -1.101666134   0.000000000000 (    0.00)
   CI-PROBLEM SOLVED
   DENSITIES MADE
   E(CAS)=    -1.101666134 Eh DE=    -0.000000012
   --- Energy gap subspaces: Ext-Act = -2.473   Act-Int = 0.600
   N(occ)=  1.97081 0.00412 0.00399 0.00392 0.00392 0.00525 0.00285 0.00012 0.00012 0.00491
   ||g|| =      0.000114063 Max(G)=    -0.000067419 Rot=18,0
                     ---- THE CAS-SCF ENERGY   HAS CONVERGED ----
                     ---- THE CAS-SCF GRADIENT HAS CONVERGED ----
                            --- FINALIZING ORBITALS ---
                    ---- DOING ONE FINAL ITERATION FOR PRINTING ----
   --- Forming Natural Orbitals
   --- Canonicalize Internal Space
   --- Canonicalize External Space

MACRO-ITERATION  10: 
   --- Inactive Energy E0 = 1.05584734 Eh
   --- All densities will be recomputed
CI-ITERATION   0: 
    -1.101666134   0.000000000000 (    0.00)
   CI-PROBLEM SOLVED
   DENSITIES MADE
   E(CAS)=    -1.101666134 Eh DE=     0.000000000
   --- Energy gap subspaces: Ext-Act = -3.535   Act-Int = 0.600
   N(occ)=  1.97530 0.00937 0.00702 0.00392 0.00392 0.00014 0.00012 0.00012 0.00010 0.00000
   ||g|| =      0.000114063 Max(G)=    -0.000072251 Rot=28,0
--------------
CASSCF RESULTS
--------------

Final CASSCF energy       : -1.101666134 Eh     -29.9779 eV

----------------
ORBITAL ENERGIES
----------------

  NO   OCC          E(Eh)            E(eV) 
   0   1.9753      -0.674361       -18.3503 
   1   0.0094       1.024396        27.8752 
   2   0.0070       1.060378        28.8543 
   3   0.0039       1.277990        34.7759 
   4   0.0039       1.277990        34.7759 
   5   0.0001       3.340881        90.9100 
   6   0.0001       3.275183        89.1223 
   7   0.0001       3.275183        89.1223 
   8   0.0001       4.281328       116.5009 
   9   0.0000       0.199831         5.4377 
  10   0.0000       0.746731        20.3196 
  11   0.0000       0.778939        21.1960 
  12   0.0000       1.165133        31.7049 
  13   0.0000       1.165133        31.7049 
  14   0.0000       1.280346        34.8400 
  15   0.0000       1.577017        42.9128 
  16   0.0000       1.577017        42.9128 
  17   0.0000       1.728789        47.0427 
  18   0.0000       2.000339        54.4320 
  19   0.0000       2.000339        54.4320 
  20   0.0000       2.558423        69.6182 
  21   0.0000       2.558423        69.6182 
  22   0.0000       2.610585        71.0376 
  23   0.0000       2.610585        71.0376 
  24   0.0000       2.756047        74.9959 
  25   0.0000       3.390649        92.2642 
  26   0.0000       3.390649        92.2642 
  27   0.0000       3.831191       104.2520 
  28   0.0000       5.130261       139.6015 
  29   0.0000       5.776474       157.1858 
  30   0.0000       5.776474       157.1858 
  31   0.0000       6.350535       172.8069 
  32   0.0000       6.801053       185.0660 
  33   0.0000       6.875506       187.0920 
  34   0.0000       6.875506       187.0920 
  35   0.0000       6.903034       187.8411 
  36   0.0000       6.903034       187.8411 
  37   0.0000       7.017194       190.9476 
  38   0.0000       7.017194       190.9476 
  39   0.0000       7.111078       193.5023 
  40   0.0000       7.111078       193.5023 
  41   0.0000       7.119395       193.7286 
  42   0.0000       7.119395       193.7286 
  43   0.0000       7.229522       196.7253 
  44   0.0000       7.229522       196.7253 
  45   0.0000       7.666378       208.6128 
  46   0.0000       7.895442       214.8459 
  47   0.0000       7.895442       214.8459 
  48   0.0000       8.063288       219.4132 
  49   0.0000       8.516883       231.7562 
  50   0.0000       8.516883       231.7562 
  51   0.0000      10.665099       290.2121 
  52   0.0000      10.665099       290.2121 
  53   0.0000      11.372191       309.4531 
  54   0.0000      11.372191       309.4531 
  55   0.0000      11.992815       326.3411 
  56   0.0000      15.079930       410.3457 
  57   0.0000      15.079930       410.3457 
  58   0.0000      15.969494       434.5520 
  59   0.0000      18.502173       503.4697 


---------------------------------------------
CAS-SCF STATES FOR BLOCK  1 MULT= 1 NROOTS= 1
---------------------------------------------

ROOT   0:  E=      -1.1016661335 Eh
      0.98765 [     0]: 2000000000
      0.00468 [    10]: 0200000000
      0.00351 [    19]: 0020000000


--------------
DENSITY MATRIX
--------------

                  0          1          2          3          4          5    
      0       1.975300   0.000000  -0.000000   0.000000  -0.000000  -0.000000
      1       0.000000   0.009370  -0.000000   0.000000  -0.000000   0.000000
      2      -0.000000  -0.000000   0.007023  -0.000000  -0.000000   0.000000
      3       0.000000   0.000000  -0.000000   0.003923   0.000000  -0.000000
      4      -0.000000  -0.000000  -0.000000   0.000000   0.003923  -0.000000
      5      -0.000000   0.000000   0.000000  -0.000000  -0.000000   0.000135
      6      -0.000000  -0.000000   0.000000  -0.000000   0.000000  -0.000000
      7       0.000000   0.000000   0.000000   0.000000   0.000000  -0.000000
      8       0.000000  -0.000000  -0.000000  -0.000000  -0.000000  -0.000000
      9       0.000000   0.000000  -0.000000   0.000000  -0.000000   0.000000
                   6          7          8          9    
      0      -0.000000   0.000000   0.000000   0.000000
      1      -0.000000   0.000000  -0.000000   0.000000
      2       0.000000   0.000000  -0.000000  -0.000000
      3      -0.000000   0.000000  -0.000000   0.000000
      4       0.000000   0.000000  -0.000000  -0.000000
      5      -0.000000  -0.000000  -0.000000   0.000000
      6       0.000116   0.000000  -0.000000   0.000000
      7       0.000000   0.000116   0.000000  -0.000000
      8      -0.000000   0.000000   0.000095  -0.000000
      9       0.000000  -0.000000  -0.000000   0.000000
Trace of the electron density:  2.000000

-----------------
ENERGY COMPONENTS
-----------------

One electron energy          :     -2.848806534 Eh         -77.5200 eV
Two electron energy          :      0.691293059 Eh          18.8110 eV
Nuclear repulsion energy     :      1.055847342 Eh          28.7311 eV
                               ----------------
                                   -1.101666134

Kinetic energy               :      1.491672720 Eh          40.5905 eV
Potential energy             :     -2.593338854 Eh         -70.5683 eV
Virial ratio                 :     -1.738544131 
                               ----------------
                                   -1.101666134

Core energy                  :      1.055847342 Eh       28.7311 eV


----------------------------
LOEWDIN ORBITAL-COMPOSITIONS
----------------------------

                      0         1         2         3         4         5   
                  -0.67436   1.02440   1.06038   1.27799   1.27799   3.34088
                   1.97530   0.00937   0.00702   0.00392   0.00392   0.00014
                  --------  --------  --------  --------  --------  --------
 0 H  s              47.2      10.2      35.6       0.0       0.0       2.6
 0 H  pz              0.0       0.0       0.0       0.2      46.5       0.0
 0 H  px              2.4      34.8      12.4       0.0       0.0      22.4
 0 H  py              0.0       0.0       0.0      46.5       0.2       0.0
 0 H  dz2             0.1       1.1       0.5       0.0       0.0       5.0
 0 H  dxz             0.0       0.0       0.0       0.0       3.2       0.0
 0 H  dx2y2           0.2       3.4       1.4       0.0       0.0      15.0
 0 H  dxy             0.0       0.0       0.0       3.2       0.0       0.0
 0 H  f+1             0.0       0.2       0.1       0.0       0.0       1.9
 0 H  f+3             0.0       0.3       0.1       0.0       0.0       3.1
 0 H  f-3             0.0       0.0       0.0       0.1       0.0       0.0
 1 H  s              47.2      10.2      35.6       0.0       0.0       2.6
 1 H  pz              0.0       0.0       0.0       0.2      46.5       0.0
 1 H  px              2.4      34.8      12.4       0.0       0.0      22.4
 1 H  py              0.0       0.0       0.0      46.5       0.2       0.0
 1 H  dz2             0.1       1.1       0.5       0.0       0.0       5.0
 1 H  dxz             0.0       0.0       0.0       0.0       3.2       0.0
 1 H  dx2y2           0.2       3.4       1.4       0.0       0.0      15.0
 1 H  dxy             0.0       0.0       0.0       3.2       0.0       0.0
 1 H  f+1             0.0       0.2       0.1       0.0       0.0       1.9
 1 H  f+3             0.0       0.3       0.1       0.0       0.0       3.1
 1 H  f-3             0.0       0.0       0.0       0.1       0.0       0.0

                      6         7         8         9        10        11   
                   3.27518   3.27518   4.28133   0.19983   0.74673   0.77894
                   0.00012   0.00012   0.00010   0.00000   0.00000   0.00000
                  --------  --------  --------  --------  --------  --------
 0 H  s               0.0       0.0      20.4      48.5      46.8      36.1
 0 H  pz             18.4       0.0       0.0       0.0       0.0       0.0
 0 H  px              0.0       0.0      16.3       1.2       3.1      13.8
 0 H  py              0.0      18.4       0.0       0.0       0.0       0.0
 0 H  dz2             0.0       0.0       2.8       0.1       0.0       0.0
 0 H  dxz            26.4       0.0       0.0       0.0       0.0       0.0
 0 H  dx2y2           0.0       0.0       8.3       0.2       0.1       0.0
 0 H  dxy             0.0      26.4       0.0       0.0       0.0       0.0
 0 H  f0              1.9       0.0       0.0       0.0       0.0       0.0
 0 H  f+1             0.0       0.0       0.8       0.0       0.0       0.0
 0 H  f-1             0.0       0.3       0.0       0.0       0.0       0.0
 0 H  f+2             3.2       0.0       0.0       0.0       0.0       0.0
 0 H  f+3             0.0       0.0       1.4       0.0       0.0       0.0
 0 H  f-3             0.0       4.9       0.0       0.0       0.0       0.0
 1 H  s               0.0       0.0      20.4      48.5      46.8      36.1
 1 H  pz             18.4       0.0       0.0       0.0       0.0       0.0
 1 H  px              0.0       0.0      16.3       1.2       3.1      13.8
 1 H  py              0.0      18.4       0.0       0.0       0.0       0.0
 1 H  dz2             0.0       0.0       2.8       0.1       0.0       0.0
 1 H  dxz            26.4       0.0       0.0       0.0       0.0       0.0
 1 H  dx2y2           0.0       0.0       8.3       0.2       0.1       0.0
 1 H  dxy             0.0      26.4       0.0       0.0       0.0       0.0
 1 H  f0              1.9       0.0       0.0       0.0       0.0       0.0
 1 H  f+1             0.0       0.0       0.8       0.0       0.0       0.0
 1 H  f-1             0.0       0.3       0.0       0.0       0.0       0.0
 1 H  f+2             3.2       0.0       0.0       0.0       0.0       0.0
 1 H  f+3             0.0       0.0       1.4       0.0       0.0       0.0
 1 H  f-3             0.0       4.9       0.0       0.0       0.0       0.0

                     12        13        14        15        16        17   
                   1.16513   1.16513   1.28035   1.57702   1.57702   1.72879
                   0.00000   0.00000   0.00000   0.00000   0.00000   0.00000
                  --------  --------  --------  --------  --------  --------
 0 H  s               0.0       0.0       7.4       0.0       0.0      13.9
 0 H  pz              0.0      48.8       0.0       0.3      47.5       0.0
 0 H  px              0.0       0.0      40.0       0.0       0.0      25.7
 0 H  py             48.8       0.0       0.0      47.5       0.3       0.0
 0 H  dz2             0.0       0.0       0.6       0.0       0.0       2.6
 0 H  dxz             0.0       1.1       0.0       0.0       2.0       0.0
 0 H  dx2y2           0.0       0.0       1.7       0.0       0.0       7.8
 0 H  dxy             1.1       0.0       0.0       2.0       0.0       0.0
 0 H  f+1             0.0       0.0       0.1       0.0       0.0       0.0
 0 H  f+2             0.0       0.1       0.0       0.0       0.1       0.0
 0 H  f+3             0.0       0.0       0.2       0.0       0.0       0.1
 0 H  f-3             0.1       0.0       0.0       0.2       0.0       0.0
 1 H  s               0.0       0.0       7.4       0.0       0.0      13.9
 1 H  pz              0.0      48.8       0.0       0.3      47.5       0.0
 1 H  px              0.0       0.0      40.0       0.0       0.0      25.7
 1 H  py             48.8       0.0       0.0      47.5       0.3       0.0
 1 H  dz2             0.0       0.0       0.6       0.0       0.0       2.6
 1 H  dxz             0.0       1.1       0.0       0.0       2.0       0.0
 1 H  dx2y2           0.0       0.0       1.7       0.0       0.0       7.8
 1 H  dxy             1.1       0.0       0.0       2.0       0.0       0.0
 1 H  f+1             0.0       0.0       0.1       0.0       0.0       0.0
 1 H  f+2             0.0       0.1       0.0       0.0       0.1       0.0
 1 H  f+3             0.0       0.0       0.2       0.0       0.0       0.1
 1 H  f-3             0.1       0.0       0.0       0.2       0.0       0.0

                     18        19        20        21        22        23   
                   2.00034   2.00034   2.55842   2.55842   2.61059   2.61059
                   0.00000   0.00000   0.00000   0.00000   0.00000   0.00000
                  --------  --------  --------  --------  --------  --------
 0 H  pz              0.0       0.0       0.0       0.0       0.0       4.4
 0 H  py              0.0       0.0       0.0       0.0       4.4       0.0
 0 H  dz2            37.4       0.0      32.0       0.0       0.0       0.0
 0 H  dxz             0.0       0.0       0.0       0.0       0.1      40.4
 0 H  dyz             0.0      49.9       0.0      42.7       0.0       0.0
 0 H  dx2y2          12.5       0.0      10.7       0.0       0.0       0.0
 0 H  dxy             0.0       0.0       0.0       0.0      40.4       0.1
 0 H  f0              0.0       0.0       0.0       0.0       0.0       1.9
 0 H  f+1             0.1       0.0       4.6       0.0       0.0       0.0
 0 H  f-1             0.0       0.0       0.0       0.0       0.3       0.0
 0 H  f+2             0.0       0.0       0.0       0.0       0.0       3.2
 0 H  f-2             0.0       0.1       0.0       7.3       0.0       0.0
 0 H  f+3             0.0       0.0       2.7       0.0       0.0       0.0
 0 H  f-3             0.0       0.0       0.0       0.0       4.8       0.0
 1 H  pz              0.0       0.0       0.0       0.0       0.0       4.4
 1 H  py              0.0       0.0       0.0       0.0       4.4       0.0
 1 H  dz2            37.4       0.0      32.0       0.0       0.0       0.0
 1 H  dxz             0.0       0.0       0.0       0.0       0.1      40.4
 1 H  dyz             0.0      49.9       0.0      42.7       0.0       0.0
 1 H  dx2y2          12.5       0.0      10.7       0.0       0.0       0.0
 1 H  dxy             0.0       0.0       0.0       0.0      40.4       0.1
 1 H  f0              0.0       0.0       0.0       0.0       0.0       1.9
 1 H  f+1             0.1       0.0       4.6       0.0       0.0       0.0
 1 H  f-1             0.0       0.0       0.0       0.0       0.3       0.0
 1 H  f+2             0.0       0.0       0.0       0.0       0.0       3.2
 1 H  f-2             0.0       0.1       0.0       7.3       0.0       0.0
 1 H  f+3             0.0       0.0       2.7       0.0       0.0       0.0
 1 H  f-3             0.0       0.0       0.0       0.0       4.8       0.0

                     24        25        26        27        28        29   
                   2.75605   3.39065   3.39065   3.83119   5.13026   5.77647
                   0.00000   0.00000   0.00000   0.00000   0.00000   0.00000
                  --------  --------  --------  --------  --------  --------
 0 H  s               4.3       0.0       0.0      32.3       0.8       0.0
 0 H  pz              0.0       8.1       0.0       0.0       0.0       0.0
 0 H  px              7.9       0.0       0.0      11.4       4.4       0.0
 0 H  py              0.0       0.0       8.1       0.0       0.0       0.0
 0 H  dz2             7.7       0.0       0.0       0.9       6.0       0.0
 0 H  dxz             0.0      32.7       0.0       0.0       0.0       0.0
 0 H  dx2y2          23.2       0.0       0.0       2.7      17.9       0.0
 0 H  dxy             0.0       0.0      32.7       0.0       0.0       0.0
 0 H  f0              0.0       3.5       0.0       0.0       0.0       0.1
 0 H  f+1             2.6       0.0       0.0       1.0       7.9       0.0
 0 H  f-1             0.0       0.0       0.6       0.0       0.0      46.7
 0 H  f+2             0.0       5.8       0.0       0.0       0.0       0.1
 0 H  f+3             4.3       0.0       0.0       1.7      13.1       0.0
 0 H  f-3             0.0       0.0       8.6       0.0       0.0       3.1
 1 H  s               4.3       0.0       0.0      32.3       0.8       0.0
 1 H  pz              0.0       8.1       0.0       0.0       0.0       0.0
 1 H  px              7.9       0.0       0.0      11.4       4.4       0.0
 1 H  py              0.0       0.0       8.1       0.0       0.0       0.0
 1 H  dz2             7.7       0.0       0.0       0.9       6.0       0.0
 1 H  dxz             0.0      32.7       0.0       0.0       0.0       0.0
 1 H  dx2y2          23.2       0.0       0.0       2.7      17.9       0.0
 1 H  dxy             0.0       0.0      32.7       0.0       0.0       0.0
 1 H  f0              0.0       3.5       0.0       0.0       0.0       0.1
 1 H  f+1             2.6       0.0       0.0       1.0       7.9       0.0
 1 H  f-1             0.0       0.0       0.6       0.0       0.0      46.7
 1 H  f+2             0.0       5.8       0.0       0.0       0.0       0.1
 1 H  f+3             4.3       0.0       0.0       1.7      13.1       0.0
 1 H  f-3             0.0       0.0       8.6       0.0       0.0       3.1

                     30        31        32        33        34        35   
                   5.77647   6.35054   6.80105   6.87551   6.87551   6.90303
                   0.00000   0.00000   0.00000   0.00000   0.00000   0.00000
                  --------  --------  --------  --------  --------  --------
 0 H  s               0.0      13.3      11.5       0.0       0.0       0.0
 0 H  px              0.0      34.0       7.8       0.0       0.0       0.0
 0 H  dz2             0.0       0.2       7.7      10.4       0.0       3.5
 0 H  dyz             0.0       0.0       0.0       0.0      13.8       0.0
 0 H  dx2y2           0.0       0.7      23.0       3.5       0.0       1.2
 0 H  f0             31.1       0.0       0.0       0.0       0.0       0.0
 0 H  f+1             0.0       0.6       0.0      22.6       0.0      28.3
 0 H  f-1             0.2       0.0       0.0       0.0       0.0       0.0
 0 H  f+2            18.7       0.0       0.0       0.0       0.0       0.0
 0 H  f-2             0.0       0.0       0.0       0.0      36.2       0.0
 0 H  f+3             0.0       1.1       0.1      13.6       0.0      17.0
 1 H  s               0.0      13.3      11.5       0.0       0.0       0.0
 1 H  px              0.0      34.0       7.8       0.0       0.0       0.0
 1 H  dz2             0.0       0.2       7.7      10.4       0.0       3.5
 1 H  dyz             0.0       0.0       0.0       0.0      13.8       0.0
 1 H  dx2y2           0.0       0.7      23.0       3.5       0.0       1.2
 1 H  f0             31.1       0.0       0.0       0.0       0.0       0.0
 1 H  f+1             0.0       0.6       0.0      22.6       0.0      28.3
 1 H  f-1             0.2       0.0       0.0       0.0       0.0       0.0
 1 H  f+2            18.7       0.0       0.0       0.0       0.0       0.0
 1 H  f-2             0.0       0.0       0.0       0.0      36.2       0.0
 1 H  f+3             0.0       1.1       0.1      13.6       0.0      17.0

                     36        37        38        39        40        41   
                   6.90303   7.01719   7.01719   7.11108   7.11108   7.11939
                   0.00000   0.00000   0.00000   0.00000   0.00000   0.00000
                  --------  --------  --------  --------  --------  --------
 0 H  pz              0.0      25.3       0.1       7.1       0.0       0.0
 0 H  py              0.0       0.1      25.3       0.0       7.1       0.0
 0 H  dxz             0.0       0.7       0.0       7.5       0.0       0.0
 0 H  dyz             4.6       0.0       0.0       0.0       0.0       0.0
 0 H  dxy             0.0       0.0       0.7       0.0       7.5       0.0
 0 H  f0              0.0       8.9       0.0      13.2       0.0       1.2
 0 H  f-1             0.0       0.0       1.5       0.0       2.2      45.0
 0 H  f+2             0.0      14.9       0.1      22.1       0.0       0.7
 0 H  f-2            45.4       0.0       0.0       0.0       0.0       0.0
 0 H  f-3             0.0       0.1      22.3       0.1      33.1       3.0
 1 H  pz              0.0      25.3       0.1       7.1       0.0       0.0
 1 H  py              0.0       0.1      25.3       0.0       7.1       0.0
 1 H  dxz             0.0       0.7       0.0       7.5       0.0       0.0
 1 H  dyz             4.6       0.0       0.0       0.0       0.0       0.0
 1 H  dxy             0.0       0.0       0.7       0.0       7.5       0.0
 1 H  f0              0.0       8.9       0.0      13.2       0.0       1.2
 1 H  f-1             0.0       0.0       1.5       0.0       2.2      45.0
 1 H  f+2             0.0      14.9       0.1      22.1       0.0       0.7
 1 H  f-2            45.4       0.0       0.0       0.0       0.0       0.0
 1 H  f-3             0.0       0.1      22.3       0.1      33.1       3.0

                     42        43        44        45        46        47   
                   7.11939   7.22952   7.22952   7.66638   7.89544   7.89544
                   0.00000   0.00000   0.00000   0.00000   0.00000   0.00000
                  --------  --------  --------  --------  --------  --------
 0 H  s               0.0       0.0       0.0       4.7       0.0       0.0
 0 H  pz              0.0       0.1      10.0       0.0       0.0       0.0
 0 H  px              0.0       0.0       0.0       7.4       0.0       0.0
 0 H  py              0.0      10.0       0.1       0.0       0.0       0.0
 0 H  dz2             0.0       0.0       0.0       1.5      34.1       0.0
 0 H  dxz             0.0       0.2      30.4       0.0       0.0       0.0
 0 H  dyz             0.0       0.0       0.0       0.0       0.0      45.5
 0 H  dx2y2           0.0       0.0       0.0       4.5      11.4       0.0
 0 H  dxy             0.0      30.4       0.2       0.0       0.0       0.0
 0 H  f0             30.0       0.0       3.5       0.0       0.0       0.0
 0 H  f+1             0.0       0.0       0.0      12.0       2.8       0.0
 0 H  f-1             1.9       0.6       0.0       0.0       0.0       0.0
 0 H  f+2            18.0       0.0       5.8       0.0       0.0       0.0
 0 H  f-2             0.0       0.0       0.0       0.0       0.0       4.5
 0 H  f+3             0.0       0.0       0.0      19.9       1.7       0.0
 0 H  f-3             0.1       8.6       0.1       0.0       0.0       0.0
 1 H  s               0.0       0.0       0.0       4.7       0.0       0.0
 1 H  pz              0.0       0.1      10.0       0.0       0.0       0.0
 1 H  px              0.0       0.0       0.0       7.4       0.0       0.0
 1 H  py              0.0      10.0       0.1       0.0       0.0       0.0
 1 H  dz2             0.0       0.0       0.0       1.5      34.1       0.0
 1 H  dxz             0.0       0.2      30.4       0.0       0.0       0.0
 1 H  dyz             0.0       0.0       0.0       0.0       0.0      45.5
 1 H  dx2y2           0.0       0.0       0.0       4.5      11.4       0.0
 1 H  dxy             0.0      30.4       0.2       0.0       0.0       0.0
 1 H  f0             30.0       0.0       3.5       0.0       0.0       0.0
 1 H  f+1             0.0       0.0       0.0      12.0       2.8       0.0
 1 H  f-1             1.9       0.6       0.0       0.0       0.0       0.0
 1 H  f+2            18.0       0.0       5.8       0.0       0.0       0.0
 1 H  f-2             0.0       0.0       0.0       0.0       0.0       4.5
 1 H  f+3             0.0       0.0       0.0      19.9       1.7       0.0
 1 H  f-3             0.1       8.6       0.1       0.0       0.0       0.0

                     48        49        50        51        52        53   
                   8.06329   8.51688   8.51688  10.66510  10.66510  11.37219
                   0.00000   0.00000   0.00000   0.00000   0.00000   0.00000
                  --------  --------  --------  --------  --------  --------
 0 H  s               1.6       0.0       0.0       0.0       0.0       0.0
 0 H  pz              0.0      47.3       0.1       0.0      15.7       0.0
 0 H  px              3.2       0.0       0.0       0.0       0.0       0.0
 0 H  py              0.0       0.1      47.3      15.7       0.0       0.0
 0 H  dz2             6.7       0.0       0.0       0.0       0.0      32.6
 0 H  dxz             0.0       2.6       0.0       0.0      22.9       0.0
 0 H  dx2y2          20.0       0.0       0.0       0.0       0.0      10.9
 0 H  dxy             0.0       0.0       2.6      22.9       0.0       0.0
 0 H  f0              0.0       0.0       0.0       0.0       4.3       0.0
 0 H  f+1             6.9       0.0       0.0       0.0       0.0       4.1
 0 H  f-1             0.0       0.0       0.0       0.7       0.0       0.0
 0 H  f+2             0.0       0.0       0.0       0.0       7.1       0.0
 0 H  f+3            11.6       0.0       0.0       0.0       0.0       2.4
 0 H  f-3             0.0       0.0       0.0      10.6       0.0       0.0
 1 H  s               1.6       0.0       0.0       0.0       0.0       0.0
 1 H  pz              0.0      47.3       0.1       0.0      15.7       0.0
 1 H  px              3.2       0.0       0.0       0.0       0.0       0.0
 1 H  py              0.0       0.1      47.3      15.7       0.0       0.0
 1 H  dz2             6.7       0.0       0.0       0.0       0.0      32.6
 1 H  dxz             0.0       2.6       0.0       0.0      22.9       0.0
 1 H  dx2y2          20.0       0.0       0.0       0.0       0.0      10.9
 1 H  dxy             0.0       0.0       2.6      22.9       0.0       0.0
 1 H  f0              0.0       0.0       0.0       0.0       4.3       0.0
 1 H  f+1             6.9       0.0       0.0       0.0       0.0       4.1
 1 H  f-1             0.0       0.0       0.0       0.7       0.0       0.0
 1 H  f+2             0.0       0.0       0.0       0.0       7.1       0.0
 1 H  f+3            11.6       0.0       0.0       0.0       0.0       2.4
 1 H  f-3             0.0       0.0       0.0      10.6       0.0       0.0

                     54        55        56        57        58        59   
                  11.37219  11.99282  15.07993  15.07993  15.96949  18.50217
                   0.00000   0.00000   0.00000   0.00000   0.00000   0.00000
                  --------  --------  --------  --------  --------  --------
 0 H  s               0.0      11.2       0.0       0.0      27.4      24.3
 0 H  pz              0.0       0.0      20.2       0.1       0.0       0.0
 0 H  px              0.0      20.9       0.0       0.0      19.2      11.8
 0 H  py              0.0       0.0       0.1      20.2       0.0       0.0
 0 H  dz2             0.0       2.7       0.0       0.0       0.7       3.2
 0 H  dxz             0.0       0.0      29.4       0.2       0.0       0.0
 0 H  dyz            43.5       0.0       0.0       0.0       0.0       0.0
 0 H  dx2y2           0.0       8.0       0.0       0.0       2.2       9.7
 0 H  dxy             0.0       0.0       0.2      29.4       0.0       0.0
 0 H  f+1             0.0       2.7       0.0       0.0       0.2       0.4
 0 H  f-2             6.5       0.0       0.0       0.0       0.0       0.0
 0 H  f+3             0.0       4.6       0.0       0.0       0.3       0.6
 0 H  f-3             0.0       0.0       0.0       0.1       0.0       0.0
 1 H  s               0.0      11.2       0.0       0.0      27.4      24.3
 1 H  pz              0.0       0.0      20.2       0.1       0.0       0.0
 1 H  px              0.0      20.9       0.0       0.0      19.2      11.8
 1 H  py              0.0       0.0       0.1      20.2       0.0       0.0
 1 H  dz2             0.0       2.7       0.0       0.0       0.7       3.2
 1 H  dxz             0.0       0.0      29.4       0.2       0.0       0.0
 1 H  dyz            43.5       0.0       0.0       0.0       0.0       0.0
 1 H  dx2y2           0.0       8.0       0.0       0.0       2.2       9.7
 1 H  dxy             0.0       0.0       0.2      29.4       0.0       0.0
 1 H  f+1             0.0       2.7       0.0       0.0       0.2       0.4
 1 H  f-2             6.5       0.0       0.0       0.0       0.0       0.0
 1 H  f+3             0.0       4.6       0.0       0.0       0.3       0.6
 1 H  f-3             0.0       0.0       0.0       0.1       0.0       0.0


----------------------------
LOEWDIN REDUCED ACTIVE MOs  
----------------------------

                      0         1         2         3         4         5   
                  -0.67436   1.02440   1.06038   1.27799   1.27799   3.34088
                   1.97530   0.00937   0.00702   0.00392   0.00392   0.00014
                  --------  --------  --------  --------  --------  --------
 0 H  s              47.2      10.2      35.6       0.0       0.0       2.6
 0 H  pz              0.0       0.0       0.0       0.2      46.5       0.0
 0 H  px              2.4      34.8      12.4       0.0       0.0      22.4
 0 H  py              0.0       0.0       0.0      46.5       0.2       0.0
 0 H  dx2y2           0.2       3.4       1.4       0.0       0.0      15.0
 1 H  s              47.2      10.2      35.6       0.0       0.0       2.6
 1 H  pz              0.0       0.0       0.0       0.2      46.5       0.0
 1 H  px              2.4      34.8      12.4       0.0       0.0      22.4
 1 H  py              0.0       0.0       0.0      46.5       0.2       0.0
 1 H  dx2y2           0.2       3.4       1.4       0.0       0.0      15.0

                      6         7         8         9        10        11   
                   3.27518   3.27518   4.28133   0.19983   0.74673   0.77894
                   0.00012   0.00012   0.00010   0.00000   0.00000   0.00000
                  --------  --------  --------  --------  --------  --------
 0 H  s               0.0       0.0      20.4      48.5      46.8      36.1
 0 H  pz             18.4       0.0       0.0       0.0       0.0       0.0
 0 H  px              0.0       0.0      16.3       1.2       3.1      13.8
 0 H  py              0.0      18.4       0.0       0.0       0.0       0.0
 0 H  dxz            26.4       0.0       0.0       0.0       0.0       0.0
 0 H  dx2y2           0.0       0.0       8.3       0.2       0.1       0.0
 0 H  dxy             0.0      26.4       0.0       0.0       0.0       0.0
 1 H  s               0.0       0.0      20.4      48.5      46.8      36.1
 1 H  pz             18.4       0.0       0.0       0.0       0.0       0.0
 1 H  px              0.0       0.0      16.3       1.2       3.1      13.8
 1 H  py              0.0      18.4       0.0       0.0       0.0       0.0
 1 H  dxz            26.4       0.0       0.0       0.0       0.0       0.0
 1 H  dx2y2           0.0       0.0       8.3       0.2       0.1       0.0
 1 H  dxy             0.0      26.4       0.0       0.0       0.0       0.0

------------------------------------------------------------------------------
                           ORCA POPULATION ANALYSIS
------------------------------------------------------------------------------
Input electron density              ... H2_0_1_CASSCF-2-10_def2-qzvpp.sp.scfp
BaseName (.gbw .S,...)              ... H2_0_1_CASSCF-2-10_def2-qzvpp.sp

                    ********************************
                    * MULLIKEN POPULATION ANALYSIS *
                    ********************************

-----------------------
MULLIKEN ATOMIC CHARGES
-----------------------
   0 H :    0.000000
   1 H :   -0.000000
Sum of atomic charges:    0.0000000

--------------------------------
MULLIKEN REDUCED ORBITAL CHARGES
--------------------------------
  0 H s       :     0.982445  s :     0.982445
      pz      :     0.001927  p :     0.017231
      px      :     0.013377
      py      :     0.001927
      dz2     :     0.000032  d :     0.000309
      dxz     :     0.000091
      dyz     :     0.000000
      dx2y2   :     0.000095
      dxy     :     0.000091
      f0      :     0.000001  f :     0.000015
      f+1     :     0.000005
      f-1     :     0.000000
      f+2     :     0.000001
      f-2     :     0.000000
      f+3     :     0.000008
      f-3     :     0.000001
  1 H s       :     0.982445  s :     0.982445
      pz      :     0.001927  p :     0.017231
      px      :     0.013377
      py      :     0.001927
      dz2     :     0.000032  d :     0.000309
      dxz     :     0.000091
      dyz     :     0.000000
      dx2y2   :     0.000095
      dxy     :     0.000091
      f0      :     0.000001  f :     0.000015
      f+1     :     0.000005
      f-1     :     0.000000
      f+2     :     0.000001
      f-2     :     0.000000
      f+3     :     0.000008
      f-3     :     0.000001

------------------------
MULLIKEN OVERLAP CHARGES
------------------------
B(  0-H ,  1-H ) :   0.9024 


                     *******************************
                     * LOEWDIN POPULATION ANALYSIS *
                     *******************************

----------------------
LOEWDIN ATOMIC CHARGES
----------------------
   0 H :    0.000000
   1 H :   -0.000000

-------------------------------
LOEWDIN REDUCED ORBITAL CHARGES
-------------------------------
  0 H s       :     0.936178  s :     0.936178
      pz      :     0.001852  p :     0.056037
      px      :     0.052333
      py      :     0.001852
      dz2     :     0.001695  d :     0.007089
      dxz     :     0.000155
      dyz     :     0.000000
      dx2y2   :     0.005084
      dxy     :     0.000155
      f0      :     0.000004  f :     0.000696
      f+1     :     0.000252
      f-1     :     0.000001
      f+2     :     0.000007
      f-2     :     0.000000
      f+3     :     0.000420
      f-3     :     0.000011
  1 H s       :     0.936178  s :     0.936178
      pz      :     0.001852  p :     0.056037
      px      :     0.052333
      py      :     0.001852
      dz2     :     0.001695  d :     0.007089
      dxz     :     0.000155
      dyz     :     0.000000
      dx2y2   :     0.005084
      dxy     :     0.000155
      f0      :     0.000004  f :     0.000696
      f+1     :     0.000252
      f-1     :     0.000001
      f+2     :     0.000007
      f-2     :     0.000000
      f+3     :     0.000420
      f-3     :     0.000011

---------------------------------
LOEWDIN BOND ORDERS (THRESH 0.050000)
---------------------------------
B(  0-H ,  1-H ) :   0.9753 


                      *****************************
                      * MAYER POPULATION ANALYSIS *
                      *****************************

  NA   - Mulliken gross atomic population
  ZA   - Total nuclear charge
  QA   - Mulliken gross atomic charge
  VA   - Mayer's total valence
  BVA  - Mayer's bonded valence
  FA   - Mayer's free valence

  ATOM       NA         ZA         QA         VA         BVA        FA
  0 H      1.0000     1.0000     0.0000     1.0223     0.9733     0.0490
  1 H      1.0000     1.0000    -0.0000     1.0223     0.9733     0.0490

  Mayer bond orders larger than 0.100000
B(  0-H ,  1-H ) :   0.9733 


-------------------------------------------------------------
 Forming the transition density       ... done in 0.002349 sec
-------------------------------------------------------------



==========================================
CASSCF UV, CD spectra and dipole moments
==========================================
-------------------
ABSORPTION SPECTRUM
-------------------

Center of mass           = (  0.4736,  0.0000,  0.0000)
Nuclear contribution to the dipole moment =     0.000000,    0.000000,    0.000000 au

Calculating the dipole integrals                  ... done
Transforming integrals                            ... done
Calculating the Linear Momentum integrals         ... done
Transforming integrals                            ... done
Calculating the Angular Momentum integrals        ... done
Transforming integrals                            ... done

Ground state mult:    1
Ground state block:   0
Ground state root:    0


------------------------------------------------------------------------------
                                 DIPOLE MOMENTS
------------------------------------------------------------------------------
  Root  Block           TX        TY        TZ           |T|
                      (Debye)   (Debye)   (Debye)      (Debye)
------------------------------------------------------------------------------
    0    0            0.00000   0.00000  -0.00000      0.00000

--------------
CASSCF TIMINGS
--------------

Total time                       ...        3.5 sec
Sum of individual times          ...        3.2 sec ( 92.1%)

Calculation of AO operators
   F(Core) operator              ...        0.1 sec (  1.6%)
   G(Act) operator               ...        0.9 sec ( 25.2%)
   J(AO) operators               ...        0.0 sec (  0.0%)
Calculation of MO transformed quantities
   J(MO) operators               ...        2.0 sec ( 57.4%)
   (pq|rs) integrals             ...        0.0 sec (  0.0%)
   AO->MO one electron integrals ...        0.0 sec (  0.5%)
Configuration interaction steps
   CI-setup phase                ...        0.0 sec (  0.0%)
   CI-solution phase             ...        0.2 sec (  5.8%)
   Generation of densities       ...        0.0 sec (  0.3%)
Orbital improvement steps
   Orbital gradient              ...        0.0 sec (  0.8%)
   O(1) converger                ...        0.0 sec (  0.2%)
Properties                       ...        0.0 sec (  0.2%)
   SOC integral calculation      ...        0.0 sec (  0.0%)
   SSC RMEs (incl. integrals)    ...        0.0 sec (  0.0%)
   SOC RMEs                      ...        0.0 sec (  0.0%)

-------------------------   --------------------
FINAL SINGLE POINT ENERGY        -1.101666133528
-------------------------   --------------------

Storing actual gbw-file in H2_0_1_CASSCF-2-10_def2-qzvpp.sp.001.gbw ... done

                            ***************************************
                            *     ORCA property calculations      *
                            ***************************************

                                    ---------------------
                                    Active property flags
                                    ---------------------
   (+) Dipole Moment


------------------------------------------------------------------------------
                       ORCA ELECTRIC PROPERTIES CALCULATION
------------------------------------------------------------------------------

Dipole Moment Calculation                       ... on
Quadrupole Moment Calculation                   ... off
Polarizability Calculation                      ... off
GBWName                                         ... H2_0_1_CASSCF-2-10_def2-qzvpp.sp.gbw
Electron density file                           ... H2_0_1_CASSCF-2-10_def2-qzvpp.sp.scfp
The origin for moment calculation is the CENTER OF MASS  = ( 0.473553,  0.000000  0.000000)

-------------
DIPOLE MOMENT
-------------
                                X             Y             Z
Electronic contribution:      0.00000       0.00000      -0.00000
Nuclear contribution   :      0.00000       0.00000       0.00000
                        -----------------------------------------
Total Dipole Moment    :      0.00000       0.00000      -0.00000
                        -----------------------------------------
Magnitude (a.u.)       :      0.00000
Magnitude (Debye)      :      0.00000



--------------------
Rotational spectrum 
--------------------
 
Rotational constants in cm-1:     0.000000   133.157724   133.157724 
Rotational constants in MHz :     0.000000 3991968.149099 3991968.149099 

 Dipole components along the rotational axes: 
x,y,z [a.u.] :     0.000000     0.000000    -0.000000 
x,y,z [Debye]:     0.000000     0.000000    -0.000000 

 

         *************************************************************
                                TRAJECTORY STEP   2
                RHH  :   0.60842987
         *************************************************************
---------------------------------
CARTESIAN COORDINATES (ANGSTROEM)
---------------------------------
  H      0.000000    0.000000    0.000000
  H      0.608430    0.000000    0.000000

----------------------------
CARTESIAN COORDINATES (A.U.)
----------------------------
  NO LB      ZA    FRAG     MASS         X           Y           Z
   0 H     1.0000    0     1.008    0.000000    0.000000    0.000000
   1 H     1.0000    0     1.008    1.149766    0.000000    0.000000

--------------------------------
INTERNAL COORDINATES (ANGSTROEM)
--------------------------------
 H      0   0   0     0.000000000000     0.00000000     0.00000000
 H      1   0   0     0.608429869077     0.00000000     0.00000000

---------------------------
INTERNAL COORDINATES (A.U.)
---------------------------
 H      0   0   0     0.000000000000     0.00000000     0.00000000
 H      1   0   0     1.149765824252     0.00000000     0.00000000


Diagonalization of the overlap matrix:
Smallest eigenvalue                        ... 8.441e-05
Time for diagonalization                   ...    0.002 sec
Threshold for overlap eigenvalues          ... 1.000e-08
Number of eigenvalues below threshold      ... 0
Time for construction of square roots      ...    0.002 sec
Total time needed                          ...    0.003 sec



 ... the calculation is a CASSCF calculation -I'm leaving here GOOD LUCK!!!

-------------------------------------------------------------------------------
                              ORCA-CASSCF
-------------------------------------------------------------------------------

Setting up the integral package       ... done
Building the CAS space                ... done (55 configurations for Mult=1)
----------------
GENERAL CI SETUP
----------------

Checking configurations                         ... done
Determining NSOMO,NDOMO and NVMO                ... done
Building up the tree                            ... done
Building N-1 electron tree                      ... done
Building RI configuration space                 ... done
Analyzing the RI configuration space            ... done
Determining NDOMO,NSOMO,NVMO for RI space       ... done
Determination of address arrays                 ... done
Looking for max. no of open shells              ... done
Setting up coupling coefficient container       ... Memory for address arrays  		      ... done
Make address arrays			      ... done
Memory for buffers 			      ... done
Setting up spin-function prototypes	      ... (MAXOPEN=2) 0 2 4 done
Trivial cases - DOMO's			      ... done (  0.0 MB)
Number of open shells			    ...  0
domo->virtual excitations			... done (  0.0 MB)
domo->somo excitations				... done (  0.0 MB)
somo->virtual excitations			... done (  0.0 MB)
somo->somo excitations				... done (  0.0 MB)
Number of open shells			    ...  2
domo->virtual excitations			... done (  0.0 MB)
domo->somo excitations				... done (  0.0 MB)
somo->virtual excitations			... done (  0.0 MB)
somo->somo excitations				... done (  0.0 MB)
Coupling container construction done
done
Now recording sub-block dimensions              ... done
Memory used for TGeneralCI arrays =     0.0 MB
  Original space  =     0.0
  RI       space  =     0.0
  Address arrays  =     0.0
  Coupling coeffs =     0.0
Multiplicity                          ...       1
# of electrons                        ...       2
# of orbitals                         ...      10
# of roots requested                  ...       1
Configuration space:
# of configurations                   ...      55
# of CSF's                            ...      55
# of rejected configurations          ...       0
Min. # of SOMOs                       ...       0
Max. # of SOMOs                       ...       2
Max. # of DOMOs                       ...       1
Max. # of VMOs                        ...       9
RI Configuration space:
# of configurations                   ...      55
# of CSF's                            ...      55
# of rejected configurations          ...       0
Min. # of SOMOs                       ...       0
Max. # of SOMOs                       ...       2
Max. # of DOMOs                       ...       1
Max. # of VMOs                        ...       9
(N-1) Electron Configuration space:
# of configurations                   ...      10
CSF dimensions:
      0 SOMOs give     1 CSFs
      2 SOMOs give     1 CSFs


SYSTEM-SPECIFIC SETTINGS:
Number of active electrons          ...    2
Number of active orbitals           ...   10
Total number of electrons           ...    2
Total number of orbitals            ...   60

Determined orbital ranges:
   Internal       0 -   -1 (   0 orbitals)
   Active         0 -    9 (  10 orbitals)
   External      10 -   59 (  50 orbitals)
Number of rotation parameters      ...    500

CI-STEP:
CI strategy                         ... General CI
Number of multiplicity blocks       ...    1
BLOCK  1 WEIGHT=   1.0000
  Multiplicity                      ...    1
  #(Configurations)                 ...   55
  #(CSFs)                           ...   55
  #(Roots)                          ...    1
    ROOT=0 WEIGHT=    1.000000

  PrintLevel                        ...    1
  N(GuessMat)                       ...       512
  MaxDim(CI)                        ...        10
  MaxIter(CI)                       ...        64
  Energy Tolerance CI               ...  2.50e-09
  Residual Tolerance CI             ...  2.50e-09
  Shift(CI)                         ...  1.00e-04

INTEGRAL-TRANSFORMATION-STEP:
  Algorithm                         ... EXACT

ORBITAL-IMPROVEMENT-STEP:
  Algorithm                         ... SuperCI(PT)
  Default Parametrization           ... CAYLEY
  Act-Act rotations                 ... depends on algorithm used

  Note: SuperCI(PT) will ignore FreezeIE, FreezeAct and FreezeGrad. In general Default settings are encouraged.
        In conjunction with ShiftUp, ShiftDn or GradScaling the performance of SuperCI(PT) is less optimal.  

  MaxRot                            ... 2.00e-01 
  Max. no of vectors (DIIS)         ... 15
  DThresh (cut-off) metric          ... 1.00e-06
  Switch step at gradient           ...  3.00e-02 
  Switch step at iteration          ...        50   
  Switch step to                    ... SuperCI(PT)    

SCF-SETTINGS:
  Incremental                       ... on
  RIJCOSX approximation             ... off
  RI-JK approximation               ... off
  AO integral handling              ... DIRECT
  Integral Neglect Thresh           ...  2.50e-11
  Primitive cutoff TCut             ...  2.50e-12
  Energy convergence tolerance      ...  2.50e-08
  Orbital gradient convergence      ...  2.50e-04
  Max. number of iterations         ...        75  


FINAL ORBITALS:
  Active   Orbitals                 ... natural 
  Internal Orbitals                 ... canonical 
  External Orbitals                 ... canonical 

------------------
CAS-SCF ITERATIONS
------------------


MACRO-ITERATION   1: 
   --- Inactive Energy E0 = 0.86974232 Eh
CI-ITERATION   0: 
    -1.154967085   0.000000000000 (    0.00)
   CI-PROBLEM SOLVED
   DENSITIES MADE

                 <<<<<<<<<<<<<<<<<<INITIAL CI STATE CHECK>>>>>>>>>>>>>>>>>>

BLOCK  1 MULT= 1 NROOTS= 1 
ROOT   0:  E=      -1.1549670854 Eh
      0.98435 [     0]: 2000000000
      0.00645 [    10]: 0200000000
      0.00314 [    19]: 0020000000

                 <<<<<<<<<<<<<<<<<<INITIAL CI STATE CHECK>>>>>>>>>>>>>>>>>>

   E(CAS)=    -1.154967085 Eh DE=     0.000000000
   --- Energy gap subspaces: Ext-Act = -3.517   Act-Int = 0.600
   N(occ)=  1.97062 0.01289 0.00801 0.00388 0.00388 0.00036 0.00012 0.00012 0.00009 0.00001
   ||g|| =      0.104379309 Max(G)=    -0.095637529 Rot=59,0
   --- Orbital Update [SuperCI(PT)]
   --- Canonicalize Internal Space
   --- Canonicalize External Space
   --- SX_PT (Skipped TA=0 IT=0): ||X|| =      1.450992613 Max(X)(27,9) =      0.818696718 
   --- SFit(Active Orbitals)

MACRO-ITERATION   2: 
   --- Inactive Energy E0 = 0.86974232 Eh
CI-ITERATION   0: 
    -1.155412219   0.000000000000 (    0.00)
   CI-PROBLEM SOLVED
   DENSITIES MADE
   E(CAS)=    -1.155412219 Eh DE=    -0.000445134
   --- Energy gap subspaces: Ext-Act = -3.308   Act-Int = 0.600
   N(occ)=  1.96973 0.01311 0.00825 0.00406 0.00406 0.00037 0.00013 0.00013 0.00011 0.00007
   ||g|| =      0.016584147 Max(G)=    -0.011711295 Rot=31,0
   --- Orbital Update [SuperCI(PT)]
   --- Canonicalize Internal Space
   --- Canonicalize External Space
   --- SX_PT (Skipped TA=0 IT=0): ||X|| =      0.782587721 Max(X)(10,9) =      0.539692933 
   --- SFit(Active Orbitals)

MACRO-ITERATION   3: 
   --- Inactive Energy E0 = 0.86974232 Eh
CI-ITERATION   0: 
    -1.155694699   0.000000000000 (    0.00)
   CI-PROBLEM SOLVED
   DENSITIES MADE
   E(CAS)=    -1.155694699 Eh DE=    -0.000282480
   --- Energy gap subspaces: Ext-Act = -3.217   Act-Int = 0.600
   N(occ)=  1.96908 0.01332 0.00841 0.00416 0.00416 0.00038 0.00013 0.00013 0.00013 0.00011
   ||g|| =      0.004803622 Max(G)=     0.003485431 Rot=59,0
   --- Orbital Update [SuperCI(PT)]
   --- Canonicalize Internal Space
   --- Canonicalize External Space
   --- SX_PT (Skipped TA=0 IT=0): ||X|| =      0.378957050 Max(X)(10,9) =      0.311845300 
   --- SFit(Active Orbitals)

MACRO-ITERATION   4: 
   --- Inactive Energy E0 = 0.86974232 Eh
CI-ITERATION   0: 
    -1.155774778   0.000000000000 (    0.00)
   CI-PROBLEM SOLVED
   DENSITIES MADE
   E(CAS)=    -1.155774778 Eh DE=    -0.000080078
   --- Energy gap subspaces: Ext-Act = -3.140   Act-Int = 0.600
   N(occ)=  1.96896 0.01339 0.00842 0.00416 0.00416 0.00038 0.00013 0.00013 0.00013 0.00014
   ||g|| =      0.001649667 Max(G)=    -0.001154348 Rot=31,0
   --- Orbital Update [SuperCI(PT)]
   --- Canonicalize Internal Space
   --- Canonicalize External Space
   --- SX_PT (Skipped TA=0 IT=0): ||X|| =      0.146514822 Max(X)(12,9) =     -0.098214850 
   --- SFit(Active Orbitals)

MACRO-ITERATION   5: 
   --- Inactive Energy E0 = 0.86974232 Eh
CI-ITERATION   0: 
    -1.155798455   0.000000000000 (    0.00)
   CI-PROBLEM SOLVED
   DENSITIES MADE
   E(CAS)=    -1.155798455 Eh DE=    -0.000023677
   --- Energy gap subspaces: Ext-Act = -3.048   Act-Int = 0.600
   N(occ)=  1.96889 0.01346 0.00842 0.00415 0.00415 0.00038 0.00013 0.00013 0.00013 0.00017
   ||g|| =      0.001692821 Max(G)=    -0.001203165 Rot=31,0
   --- Orbital Update [SuperCI(PT)]
   --- Canonicalize Internal Space
   --- Canonicalize External Space
   --- SX_PT (Skipped TA=0 IT=0): ||X|| =      0.037113267 Max(X)(10,9) =      0.022205578 
   --- SFit(Active Orbitals)

MACRO-ITERATION   6: 
   --- Inactive Energy E0 = 0.86974232 Eh
CI-ITERATION   0: 
    -1.155800937   0.000000000000 (    0.00)
   CI-PROBLEM SOLVED
   DENSITIES MADE
   E(CAS)=    -1.155800937 Eh DE=    -0.000002482
   --- Energy gap subspaces: Ext-Act = -3.032   Act-Int = 0.600
   N(occ)=  1.96884 0.01348 0.00843 0.00415 0.00415 0.00038 0.00013 0.00013 0.00013 0.00018
   ||g|| =      0.001010569 Max(G)=    -0.000567854 Rot=31,0
   --- Orbital Update [SuperCI(PT)]
   --- Canonicalize Internal Space
   --- Canonicalize External Space
   --- SX_PT (Skipped TA=0 IT=0): ||X|| =      0.020850700 Max(X)(12,9) =      0.011744181 
   --- SFit(Active Orbitals)

MACRO-ITERATION   7: 
   --- Inactive Energy E0 = 0.86974232 Eh
CI-ITERATION   0: 
    -1.155801077   0.000000000000 (    0.00)
   CI-PROBLEM SOLVED
   DENSITIES MADE
   E(CAS)=    -1.155801077 Eh DE=    -0.000000140
   --- Energy gap subspaces: Ext-Act = -3.032   Act-Int = 0.600
   N(occ)=  1.96884 0.01348 0.00843 0.00415 0.00415 0.00038 0.00013 0.00013 0.00013 0.00018
   ||g|| =      0.000585280 Max(G)=    -0.000388207 Rot=31,0
   --- Orbital Update [SuperCI(PT)]
   --- Canonicalize Internal Space
   --- Canonicalize External Space
   --- SX_PT (Skipped TA=0 IT=0): ||X|| =      0.019693504 Max(X)(10,9) =      0.014389144 
   --- SFit(Active Orbitals)

MACRO-ITERATION   8: 
   --- Inactive Energy E0 = 0.86974232 Eh
CI-ITERATION   0: 
    -1.155801633   0.000000000000 (    0.00)
   CI-PROBLEM SOLVED
   DENSITIES MADE
   E(CAS)=    -1.155801633 Eh DE=    -0.000000556
   --- Energy gap subspaces: Ext-Act = -3.023   Act-Int = 0.600
   N(occ)=  1.96881 0.01349 0.00843 0.00415 0.00415 0.00038 0.00013 0.00013 0.00013 0.00018
   ||g|| =      0.000093069 Max(G)=    -0.000064154 Rot=31,0
                     ---- THE CAS-SCF GRADIENT HAS CONVERGED ----
                            --- FINALIZING ORBITALS ---
                    ---- DOING ONE FINAL ITERATION FOR PRINTING ----
   --- Forming Natural Orbitals
   --- Canonicalize Internal Space
   --- Canonicalize External Space

MACRO-ITERATION   9: 
   --- Inactive Energy E0 = 0.86974232 Eh
   --- All densities will be recomputed
CI-ITERATION   0: 
    -1.155801633   0.000000000000 (    0.00)
   CI-PROBLEM SOLVED
   DENSITIES MADE
   E(CAS)=    -1.155801633 Eh DE=    -0.000000000
   --- Energy gap subspaces: Ext-Act = -3.719   Act-Int = 0.600
   N(occ)=  1.97085 0.01351 0.00666 0.00415 0.00415 0.00016 0.00016 0.00013 0.00013 0.00009
   ||g|| =      0.000093069 Max(G)=    -0.000068320 Rot=32,0
--------------
CASSCF RESULTS
--------------

Final CASSCF energy       : -1.155801633 Eh     -31.4510 eV


---------------------------------------------
CAS-SCF STATES FOR BLOCK  1 MULT= 1 NROOTS= 1
---------------------------------------------

ROOT   0:  E=      -1.1558016332 Eh
      0.98543 [     0]: 2000000000
      0.00676 [    10]: 0200000000
      0.00333 [    19]: 0020000000


--------------
DENSITY MATRIX
--------------

                  0          1          2          3          4          5    
      0       1.970854   0.000000   0.000000   0.000000   0.000000   0.000000
[...]
Trivial cases - DOMO's			      ... done (  0.0 MB)
Number of open shells			    ...  0
domo->virtual excitations			... done (  0.0 MB)
domo->somo excitations				... done (  0.0 MB)
somo->virtual excitations			... done (  0.0 MB)
somo->somo excitations				... done (  0.0 MB)
Number of open shells			    ...  2
domo->virtual excitations			... done (  0.0 MB)
domo->somo excitations				... done (  0.0 MB)
somo->virtual excitations			... done (  0.0 MB)
somo->somo excitations				... done (  0.0 MB)
Coupling container construction done
done
Now recording sub-block dimensions              ... done
Memory used for TGeneralCI arrays =     0.0 MB
  Original space  =     0.0
  RI       space  =     0.0
  Address arrays  =     0.0
  Coupling coeffs =     0.0
Multiplicity                          ...       1
# of electrons                        ...       2
# of orbitals                         ...      10
# of roots requested                  ...       1
Configuration space:
# of configurations                   ...      55
# of CSF's                            ...      55
# of rejected configurations          ...       0
Min. # of SOMOs                       ...       0
Max. # of SOMOs                       ...       2
Max. # of DOMOs                       ...       1
Max. # of VMOs                        ...       9
RI Configuration space:
# of configurations                   ...      55
# of CSF's                            ...      55
# of rejected configurations          ...       0
Min. # of SOMOs                       ...       0
Max. # of SOMOs                       ...       2
Max. # of DOMOs                       ...       1
Max. # of VMOs                        ...       9
(N-1) Electron Configuration space:
# of configurations                   ...      10
CSF dimensions:
      0 SOMOs give     1 CSFs
      2 SOMOs give     1 CSFs


SYSTEM-SPECIFIC SETTINGS:
Number of active electrons          ...    2
Number of active orbitals           ...   10
Total number of electrons           ...    2
Total number of orbitals            ...   60

Determined orbital ranges:
   Internal       0 -   -1 (   0 orbitals)
   Active         0 -    9 (  10 orbitals)
   External      10 -   59 (  50 orbitals)
Number of rotation parameters      ...    500

CI-STEP:
CI strategy                         ... General CI
Number of multiplicity blocks       ...    1
BLOCK  1 WEIGHT=   1.0000
  Multiplicity                      ...    1
  #(Configurations)                 ...   55
  #(CSFs)                           ...   55
  #(Roots)                          ...    1
    ROOT=0 WEIGHT=    1.000000

  PrintLevel                        ...    1
  N(GuessMat)                       ...       512
  MaxDim(CI)                        ...        10
  MaxIter(CI)                       ...        64
  Energy Tolerance CI               ...  2.50e-09
  Residual Tolerance CI             ...  2.50e-09
  Shift(CI)                         ...  1.00e-04

INTEGRAL-TRANSFORMATION-STEP:
  Algorithm                         ... EXACT

ORBITAL-IMPROVEMENT-STEP:
  Algorithm                         ... SuperCI(PT)
  Default Parametrization           ... CAYLEY
  Act-Act rotations                 ... depends on algorithm used

  Note: SuperCI(PT) will ignore FreezeIE, FreezeAct and FreezeGrad. In general Default settings are encouraged.
        In conjunction with ShiftUp, ShiftDn or GradScaling the performance of SuperCI(PT) is less optimal.  

  MaxRot                            ... 2.00e-01 
  Max. no of vectors (DIIS)         ... 15
  DThresh (cut-off) metric          ... 1.00e-06
  Switch step at gradient           ...  3.00e-02 
  Switch step at iteration          ...        50   
  Switch step to                    ... SuperCI(PT)    

SCF-SETTINGS:
  Incremental                       ... on
  RIJCOSX approximation             ... off
  RI-JK approximation               ... off
  AO integral handling              ... DIRECT
  Integral Neglect Thresh           ...  2.50e-11
  Primitive cutoff TCut             ...  2.50e-12
  Energy convergence tolerance      ...  2.50e-08
  Orbital gradient convergence      ...  2.50e-04
  Max. number of iterations         ...        75  


FINAL ORBITALS:
  Active   Orbitals                 ... natural 
  Internal Orbitals                 ... canonical 
  External Orbitals                 ... canonical 

------------------
CAS-SCF ITERATIONS
------------------


MACRO-ITERATION   1: 
   --- Inactive Energy E0 = 0.02652169 Eh
CI-ITERATION   0: 
    -0.999966586   0.000000000000 (    0.00)
   CI-PROBLEM SOLVED
   DENSITIES MADE

                 <<<<<<<<<<<<<<<<<<INITIAL CI STATE CHECK>>>>>>>>>>>>>>>>>>

BLOCK  1 MULT= 1 NROOTS= 1 
ROOT   0:  E=      -0.9999665864 Eh
      0.50002 [     0]: 2000000000
      0.49998 [    10]: 0200000000

                 <<<<<<<<<<<<<<<<<<INITIAL CI STATE CHECK>>>>>>>>>>>>>>>>>>

   E(CAS)=    -0.999966586 Eh DE=     0.000000000
   --- Energy gap subspaces: Ext-Act = -1.928   Act-Int = 0.600
   N(occ)=  1.00004 0.99996 0.00000 0.00000 0.00000 0.00000 0.00000 0.00000 0.00000 0.00000
   ||g|| =      0.000220691 Max(G)=     0.000114962 Rot=12,0
                     ---- THE CAS-SCF GRADIENT HAS CONVERGED ----
                            --- FINALIZING ORBITALS ---
                    ---- DOING ONE FINAL ITERATION FOR PRINTING ----
   --- Forming Natural Orbitals
   --- Canonicalize Internal Space
   --- Canonicalize External Space

MACRO-ITERATION   2: 
   --- Inactive Energy E0 = 0.02652169 Eh
   --- All densities will be recomputed
CI-ITERATION   0: 
    -0.999966586   0.000000000000 (    0.00)
   CI-PROBLEM SOLVED
   DENSITIES MADE
   E(CAS)=    -0.999966586 Eh DE=     0.000000000
   --- Energy gap subspaces: Ext-Act = -1.937   Act-Int = 0.600
   N(occ)=  1.00004 0.99996 0.00000 0.00000 0.00000 0.00000 0.00000 0.00000 0.00000 0.00000
   ||g|| =      0.000220691 Max(G)=     0.000114962 Rot=12,0
--------------
CASSCF RESULTS
--------------

Final CASSCF energy       : -0.999966586 Eh     -27.2105 eV


---------------------------------------------
CAS-SCF STATES FOR BLOCK  1 MULT= 1 NROOTS= 1
---------------------------------------------

ROOT   0:  E=      -0.9999665864 Eh
      0.50002 [     0]: 2000000000
      0.49998 [    10]: 0200000000


--------------
DENSITY MATRIX
--------------

                  0          1          2          3          4          5    
      0       1.000042   0.000000  -0.000000   0.000000   0.000000  -0.000000
      1       0.000000   0.999958   0.000000   0.000000  -0.000000   0.000000
      2      -0.000000   0.000000   0.000000   0.000000  -0.000000   0.000000
      3       0.000000   0.000000   0.000000   0.000000  -0.000000  -0.000000
      4       0.000000  -0.000000  -0.000000  -0.000000   0.000000  -0.000000
      5      -0.000000   0.000000   0.000000  -0.000000  -0.000000   0.000000
      6      -0.000000   0.000000  -0.000000   0.000000   0.000000   0.000000
      7      -0.000000   0.000000   0.000000   0.000000   0.000000  -0.000000
      8       0.000000   0.000000   0.000000   0.000000  -0.000000   0.000000
      9       0.000000   0.000000  -0.000000  -0.000000  -0.000000  -0.000000
                   6          7          8          9    
      0      -0.000000  -0.000000   0.000000   0.000000
      1       0.000000   0.000000   0.000000   0.000000
      2      -0.000000   0.000000   0.000000  -0.000000
      3       0.000000   0.000000   0.000000  -0.000000
      4       0.000000   0.000000  -0.000000  -0.000000
      5       0.000000  -0.000000   0.000000  -0.000000
      6       0.000000   0.000000   0.000000   0.000000
      7       0.000000   0.000000   0.000000  -0.000000
      8       0.000000   0.000000   0.000000   0.000000
      9       0.000000  -0.000000   0.000000   0.000000
Trace of the electron density:  2.000000

-----------------
ENERGY COMPONENTS
-----------------

One electron energy          :     -1.053009939 Eh         -28.6539 eV
Two electron energy          :      0.026521666 Eh           0.7217 eV
Nuclear repulsion energy     :      0.026521686 Eh           0.7217 eV
                               ----------------
                                   -0.999966586

Kinetic energy               :      1.000001643 Eh          27.2114 eV
Potential energy             :     -1.999968230 Eh         -54.4219 eV
Virial ratio                 :     -1.999964943 
                               ----------------
                                   -0.999966586

Core energy                  :      0.026521686 Eh        0.7217 eV


----------------------------
LOEWDIN REDUCED ACTIVE MOs  
----------------------------

                      0         1         2         3         4         5   
                  -0.18748  -0.18746   0.57667   0.61191   0.61191   1.17341
                   1.00004   0.99996   0.00000   0.00000   0.00000   0.00000
                  --------  --------  --------  --------  --------  --------
 0 H  s              50.0      50.0       0.2       0.0       0.0       0.0
 0 H  pz              0.0       0.0       0.0      14.2      34.8       3.6
 0 H  px              0.0       0.0      49.7       0.0       0.0       0.0
 0 H  py              0.0       0.0       0.0      34.8      14.2      43.0
 1 H  s              50.0      50.0       0.2       0.0       0.0       0.0
 1 H  pz              0.0       0.0       0.0      14.2      34.8       3.6
 1 H  px              0.0       0.0      49.7       0.0       0.0       0.0
 1 H  py              0.0       0.0       0.0      34.8      14.2      43.0

                      6         7         8         9        10        11   
                   1.17341   0.77189   2.39252   1.03582   0.45591   0.68560
                   0.00000   0.00000   0.00000   0.00000   0.00000   0.00000
                  --------  --------  --------  --------  --------  --------
 0 H  s               0.0      48.6       2.1      46.1      30.7      22.3
 0 H  pz             43.0       0.0       0.0       0.0       0.0       0.0
 0 H  px              0.0       0.9      17.0       3.8      19.3      27.7
 0 H  dz2             0.0       0.1       7.2       0.0       0.0       0.0
 0 H  dx2y2           0.0       0.4      21.7       0.1       0.0       0.0
 1 H  s               0.0      48.6       2.1      46.1      30.7      22.3
 1 H  pz             43.0       0.0       0.0       0.0       0.0       0.0
 1 H  px              0.0       0.9      17.0       3.8      19.3      27.7
 1 H  dz2             0.0       0.1       7.2       0.0       0.0       0.0
 1 H  dx2y2           0.0       0.4      21.7       0.1       0.0       0.0


-------------------------------------------------------------
 Forming the transition density       ... done in 0.002167 sec
-------------------------------------------------------------



==========================================
CASSCF UV, CD spectra and dipole moments
==========================================
-------------------
ABSORPTION SPECTRUM
-------------------

Center of mass           = ( 18.8525,  0.0000,  0.0000)
Nuclear contribution to the dipole moment =     0.000000,    0.000000,    0.000000 au

Calculating the dipole integrals                  ... done
Transforming integrals                            ... done
Calculating the Linear Momentum integrals         ... done
Transforming integrals                            ... done
Calculating the Angular Momentum integrals        ... done
Transforming integrals                            ... done

Ground state mult:    1
Ground state block:   0
Ground state root:    0


------------------------------------------------------------------------------
                                 DIPOLE MOMENTS
------------------------------------------------------------------------------
  Root  Block           TX        TY        TZ           |T|
                      (Debye)   (Debye)   (Debye)      (Debye)
------------------------------------------------------------------------------
    0    0           -0.00000  -0.00000   0.00000      0.00000

--------------
CASSCF TIMINGS
--------------

Total time                       ...        0.4 sec
Sum of individual times          ...        0.3 sec ( 69.8%)

Calculation of AO operators
   F(Core) operator              ...        0.0 sec (  1.1%)
   G(Act) operator               ...        0.0 sec (  7.0%)
   J(AO) operators               ...        0.0 sec (  0.0%)
Calculation of MO transformed quantities
   J(MO) operators               ...        0.2 sec ( 45.4%)
   (pq|rs) integrals             ...        0.0 sec (  0.0%)
   AO->MO one electron integrals ...        0.0 sec (  0.1%)
Configuration interaction steps
   CI-setup phase                ...        0.0 sec (  0.3%)
   CI-solution phase             ...        0.0 sec ( 12.0%)
   Generation of densities       ...        0.0 sec (  0.7%)
Orbital improvement steps
   Orbital gradient              ...        0.0 sec (  1.3%)
Properties                       ...        0.0 sec (  1.8%)
   SOC integral calculation      ...        0.0 sec (  0.0%)
   SSC RMEs (incl. integrals)    ...        0.0 sec (  0.0%)
   SOC RMEs                      ...        0.0 sec (  0.0%)

-------------------------   --------------------
FINAL SINGLE POINT ENERGY        -0.999966586448
-------------------------   --------------------

Storing actual gbw-file in H2_0_1_CASSCF-2-10_def2-qzvpp.sp.020.gbw ... done

                            ***************************************
                            *     ORCA property calculations      *
                            ***************************************

                                    ---------------------
                                    Active property flags
                                    ---------------------
   (+) Dipole Moment


------------------------------------------------------------------------------
                       ORCA ELECTRIC PROPERTIES CALCULATION
------------------------------------------------------------------------------

Dipole Moment Calculation                       ... on
Quadrupole Moment Calculation                   ... off
Polarizability Calculation                      ... off
GBWName                                         ... H2_0_1_CASSCF-2-10_def2-qzvpp.sp.gbw
Electron density file                           ... H2_0_1_CASSCF-2-10_def2-qzvpp.sp.scfp
The origin for moment calculation is the CENTER OF MASS  = (18.852497,  0.000000  0.000000)

-------------
DIPOLE MOMENT
-------------
                                X             Y             Z
Electronic contribution:      0.00000      -0.00000       0.00000
Nuclear contribution   :     -0.00000       0.00000       0.00000
                        -----------------------------------------
Total Dipole Moment    :     -0.00000      -0.00000       0.00000
                        -----------------------------------------
Magnitude (a.u.)       :      0.00000
Magnitude (Debye)      :      0.00000



--------------------
Rotational spectrum 
--------------------
 
Rotational constants in cm-1:     0.000000     0.084017     0.084017 
Rotational constants in MHz :     0.000000  2518.761623  2518.761623 

 Dipole components along the rotational axes: 
x,y,z [a.u.] :    -0.000000    -0.000000     0.000000 
x,y,z [Debye]:    -0.000000    -0.000000     0.000000 

 
                              **** TRAJECTORY DONE ***

                         SUMMARY OF THE CALCULATED SURFACE

------------------
TRAJECTORY RESULTS
------------------

Column   1: RHH

The Calculated Surface using the 'Actual Energy'
   0.50118723  -1.10166613
   0.60842987  -1.15580163
   0.73861998  -1.17195543
   0.89666781  -1.16061298
   1.08853427  -1.13111855
   1.32145577  -1.09257495
   1.60421716  -1.05412093
   1.94748304  -1.02435800
   2.36419999  -1.00785557
   2.87008485  -1.00173721
   3.48421754  -1.00023910
   4.22976062  -0.99999746
   5.13483291  -0.99997038
   6.23357002  -0.99996738
   7.56741181  -0.99996681
   9.18666532  -0.99996665
  11.15240214  -0.99996661
  13.53876180  -0.99996659
  16.43574799  -0.99996659
  19.95262315  -0.99996659

                        *******************************
                        *   FIT OF THE ACT-ENERGY PES *
                        *******************************
-------------------------------
POTENTIAL ENERGY SURFACE =   0
-------------------------------

Minimum found after 25 iterations
Equilibrium distance and its energy from the interpolated PES:
  Re      =   0.72636 Angstroem  (  1.37263 Bohr)
  E(Re)   =    -1.172038 Eh 
  dE/dR   = 1.022e-09 (-1.160e-01 CHEB)
  d2E/dR2 =    0.340462 (   0.806254 CHEB) (  -0.012885 NUM)
  d3E/dR3 =   -4.218008 (  -3.057947 CHEB)

Spectroscopic constants:
  we =    4241.8 cm**-1 (based on SPLINE)
  we =    6527.6 cm**-1 (based on CHEB)
  we =      -nan cm**-1 (based on NUM)

Performing Morse fit ...
Morse-Fit Results:
 Te(adiabatic)   =    -361.1 cm**-1         = -0.045 eV
 d2E/dR**2 (Morse)=      0.408588832 
 d3E/dR**3 (Morse)=     -1.326339160 
 d4E/dR**4 (Morse)=      3.348715274 
 E0               =     -1.173683102 Eh  RMS=2.87e-06
 Re               =   0.74446 Angstroem      =  1.40683 Bohr RMS=5.54e-06)
 De(Morse)        =   4.74803 eV             =  38295.4 cm**-1 RMS=2.46e-06
 D0(Morse)        =   4.45996 eV
 beta             =   1.08205 au          RMS=2.49e-05
 we               =   4646.9 cm**-1
 wexe             =    140.9 cm**-1
 Displacement   =    0.0181 Angstroem      =  0.03420 Bohr

The Calculated Surface using the SCF energy
   0.50118723  -1.10166613
   0.60842987  -1.15580163
   0.73861998  -1.17195543
   0.89666781  -1.16061298
   1.08853427  -1.13111855
   1.32145577  -1.09257495
   1.60421716  -1.05412093
   1.94748304  -1.02435800
   2.36419999  -1.00785557
   2.87008485  -1.00173721
   3.48421754  -1.00023910
   4.22976062  -0.99999746
   5.13483291  -0.99997038
   6.23357002  -0.99996738
   7.56741181  -0.99996681
   9.18666532  -0.99996665
  11.15240214  -0.99996661
  13.53876180  -0.99996659
  16.43574799  -0.99996659
  19.95262315  -0.99996659

                        *******************************
                        *       FIT OF THE SCF PES    *
                        *******************************
-------------------------------
POTENTIAL ENERGY SURFACE =   0
-------------------------------

Minimum found after 25 iterations
Equilibrium distance and its energy from the interpolated PES:
  Re      =   0.72636 Angstroem  (  1.37263 Bohr)
  E(Re)   =    -1.172038 Eh 
  dE/dR   = 1.022e-09 (-1.160e-01 CHEB)
  d2E/dR2 =    0.340462 (   0.806254 CHEB) (  -0.012885 NUM)
  d3E/dR3 =   -4.218008 (  -3.057947 CHEB)

Spectroscopic constants:
  we =    4241.8 cm**-1 (based on SPLINE)
  we =    6527.6 cm**-1 (based on CHEB)
  we =      -nan cm**-1 (based on NUM)

Performing Morse fit ...
Morse-Fit Results:
 Te(adiabatic)   =    -361.1 cm**-1         = -0.045 eV
 d2E/dR**2 (Morse)=      0.408588832 
 d3E/dR**3 (Morse)=     -1.326339160 
 d4E/dR**4 (Morse)=      3.348715274 
 E0               =     -1.173683102 Eh  RMS=2.87e-06
 Re               =   0.74446 Angstroem      =  1.40683 Bohr RMS=5.54e-06)
 De(Morse)        =   4.74803 eV             =  38295.4 cm**-1 RMS=2.46e-06
 D0(Morse)        =   4.45996 eV
 beta             =   1.08205 au          RMS=2.49e-05
 we               =   4646.9 cm**-1
 wexe             =    140.9 cm**-1
 Displacement   =    0.0181 Angstroem      =  0.03420 Bohr


Timings for individual modules:

Sum of individual times         ...       99.639 sec (=   1.661 min)
GTO integral calculation        ...        5.051 sec (=   0.084 min)   5.1 %
SCF iterations                  ...        0.984 sec (=   0.016 min)   1.0 %
CASSCF iterations               ...       93.604 sec (=   1.560 min)  93.9 %
                             ****ORCA TERMINATED NORMALLY****
TOTAL RUN TIME: 0 days 0 hours 1 minutes 41 seconds 956 msec
