
                                 *****************
                                 * O   R   C   A *
                                 *****************

           --- An Ab Initio, DFT and Semiempirical electronic structure package ---

                  #######################################################
                  #                        -***-                        #
                  #          Department of theory and spectroscopy      #
                  #               Directorship: Frank Neese             #
                  #        Max Planck Institute fuer Kohlenforschung    #
                  #                Kaiser Wilhelm Platz 1               #
                  #                 D-45470 Muelheim/Ruhr               #
                  #                      Germany                        #
                  #                                                     #
                  #                  All rights reserved                #
                  #                        -***-                        #
                  #######################################################


                         Program Version 4.2.0 -  RELEASE  -


 With contributions from (in alphabetic order):
   Daniel Aravena         : Magnetic Suceptibility
   Michael Atanasov       : Ab Initio Ligand Field Theory (pilot matlab implementation)
   Alexander A. Auer      : GIAO ZORA, VPT2
   Ute Becker             : Parallelization
   Giovanni Bistoni       : ED, misc. LED, open-shell LED, HFLED
   Martin Brehm           : Molecular dynamics
   Dmytro Bykov           : SCF Hessian
   Vijay G. Chilkuri      : MRCI spin determinant printing, contributions to CSF-ICE
   Dipayan Datta          : RHF DLPNO-CCSD density
   Achintya Kumar Dutta   : EOM-CC, STEOM-CC
   Dmitry Ganyushin       : Spin-Orbit,Spin-Spin,Magnetic field MRCI
   Miquel Garcia          : C-PCM Hessian, Gaussian charge scheme
   Yang Guo               : DLPNO-NEVPT2, CIM, IAO-localization
   Andreas Hansen         : Spin unrestricted coupled pair/coupled cluster methods
   Benjamin Helmich-Paris : CASSCF linear response (MC-RPA)
   Lee Huntington         : MR-EOM, pCC
   Robert Izsak           : Overlap fitted RIJCOSX, COSX-SCS-MP3, EOM
   Christian Kollmar      : KDIIS, OOCD, Brueckner-CCSD(T), CCSD density
   Simone Kossmann        : Meta GGA functionals, TD-DFT gradient, OOMP2, MP2 Hessian
   Martin Krupicka        : AUTO-CI
   Lucas Lang             : DCDCAS
   Dagmar Lenk            : GEPOL surface, SMD
   Dimitrios Liakos       : Extrapolation schemes; Compound Job, initial MDCI parallelization
   Dimitrios Manganas     : Further ROCIS development; embedding schemes
   Dimitrios Pantazis     : SARC Basis sets
   Taras Petrenko         : DFT Hessian,TD-DFT gradient, ASA, ECA, R-Raman, ABS, FL, XAS/XES, NRVS
   Peter Pinski           : DLPNO-MP2, DLPNO-MP2 Gradient
   Christoph Reimann      : Effective Core Potentials
   Marius Retegan         : Local ZFS, SOC
   Christoph Riplinger    : Optimizer, TS searches, QM/MM, DLPNO-CCSD(T), (RO)-DLPNO pert. Triples
   Tobias Risthaus        : Range-separated hybrids, TD-DFT gradient, RPA, STAB
   Michael Roemelt        : Original ROCIS implementation
   Masaaki Saitow         : Open-shell DLPNO-CCSD energy and density
   Barbara Sandhoefer     : DKH picture change effects
   Avijit Sen             : IP-ROCIS
   Kantharuban Sivalingam : CASSCF convergence, NEVPT2, FIC-MRCI
   Bernardo de Souza      : ESD, SOC TD-DFT
   Georgi Stoychev        : AutoAux, RI-MP2 NMR
   Willem Van den Heuvel  : Paramagnetic NMR
   Boris Wezisla          : Elementary symmetry handling
   Frank Wennmohs         : Technical directorship


 We gratefully acknowledge several colleagues who have allowed us to
 interface, adapt or use parts of their codes:
   Stefan Grimme, W. Hujo, H. Kruse,             : VdW corrections, initial TS optimization,
                  C. Bannwarth                     DFT functionals, gCP, sTDA/sTD-DF
   Ed Valeev, F. Pavosevic, A. Kumar             : LibInt (2-el integral package), F12 methods
   Garnet Chan, S. Sharma, J. Yang, R. Olivares  : DMRG
   Ulf Ekstrom                                   : XCFun DFT Library
   Mihaly Kallay                                 : mrcc  (arbitrary order and MRCC methods)
   Andreas Klamt, Michael Diedenhofen            : otool_cosmo (COSMO solvation model)
   Jiri Pittner, Ondrej Demel                    : Mk-CCSD
   Frank Weinhold                                : gennbo (NPA and NBO analysis)
   Christopher J. Cramer and Donald G. Truhlar   : smd solvation model
   Lars Goerigk                                  : TD-DFT with DH, B97 family of functionals
   V. Asgeirsson, H. Jonsson                     : NEB implementation
   FAccTs GmbH                                   : IRC, NEB, NEB-TS, Multilevel, MM, QM/MM, CI optimization
   S Lehtola, MJT Oliveira, MAL Marques          : LibXC Library


 Your calculation uses the libint2 library for the computation of 2-el integrals
 For citations please refer to: http://libint.valeyev.net

 Your ORCA version has been built with support for libXC version: 4.2.3
 For citations please refer to: https://tddft.org/programs/libxc/

 This ORCA versions uses:
   CBLAS   interface :  Fast vector & matrix operations
   LAPACKE interface :  Fast linear algebra routines
   SCALAPACK package :  Parallel linear algebra routines


----- Orbital basis set information -----
Your calculation utilizes the basis: def2-QZVPP
   F. Weigend and R. Ahlrichs, Phys. Chem. Chem. Phys. 7, 3297 (2005).

================================================================================
                                        WARNINGS
                       Please study these warnings very carefully!
================================================================================


INFO   : the flag for use of LIBINT has been found!

================================================================================
                                       INPUT FILE
================================================================================
NAME = H2_0_1_CASSCF-2-20_def2-qzvpp.sp.inp
|  1> !rhf def2-qzvpp tightscf 
|  2> !normalprint
|  3> 
|  4> %paras
|  5> #  rHH [19.952623149688797 16.43574799372698 13.538761800225439 11.152402139117903 9.1866653175426 7.567411809920191 6.233570019315557 5.134832907437553 4.229760619613384 3.4842175435383975 2.870084854071569 2.3641999865500756 1.9474830399087562 1.6042171611153242 1.32145576997553 1.088534267260644 0.8966678097917788 0.7386199822079362 0.6084298690766428 0.5011872336272722]
|  6>   rHH [0.5011872336272722 0.6084298690766428 0.7386199822079362 0.8966678097917788 1.088534267260644 1.32145576997553 1.6042171611153242 1.9474830399087562 2.3641999865500756 2.870084854071569 3.4842175435383975 4.229760619613384 5.134832907437553 6.233570019315557 7.567411809920191 9.1866653175426 11.152402139117903 13.538761800225439 16.43574799372698 19.952623149688797]
|  7> end
|  8> 
|  9> %scf
| 10>   maxiter 500
| 11> end
| 12> 
| 13> %casscf
| 14>   nel 2
| 15>   norb 20
| 16> end
| 17> 
| 18> *int 0 1
| 19> H 0 0 0 0 0 0
| 20> H 1 0 0 {rHH} 0 0
| 21> *
| 22> 
| 23>                          ****END OF INPUT****
================================================================================

                       ******************************
                       * Parameter Scan Calculation *
                       ******************************

Trajectory settings:
    -> SCF surface will be mapped

There are 1 parameter(s) to be scanned
           RHH: user defined at 20 points
There will be   20 energy evaluations


         *************************************************************
                                TRAJECTORY STEP   1
                RHH  :   0.50118723
         *************************************************************
---------------------------------
CARTESIAN COORDINATES (ANGSTROEM)
---------------------------------
  H      0.000000    0.000000    0.000000
  H      0.501187    0.000000    0.000000

----------------------------
CARTESIAN COORDINATES (A.U.)
----------------------------
  NO LB      ZA    FRAG     MASS         X           Y           Z
   0 H     1.0000    0     1.008    0.000000    0.000000    0.000000
   1 H     1.0000    0     1.008    0.947107    0.000000    0.000000

--------------------------------
INTERNAL COORDINATES (ANGSTROEM)
--------------------------------
 H      0   0   0     0.000000000000     0.00000000     0.00000000
 H      1   0   0     0.501187233627     0.00000000     0.00000000

---------------------------
INTERNAL COORDINATES (A.U.)
---------------------------
 H      0   0   0     0.000000000000     0.00000000     0.00000000
 H      1   0   0     0.947106613373     0.00000000     0.00000000

---------------------
BASIS SET INFORMATION
---------------------
There are 1 groups of distinct atoms

 Group   1 Type H   : 7s3p2d1f contracted to 4s3p2d1f pattern {4111/111/11/1}

Atom   0H    basis set group =>   1
Atom   1H    basis set group =>   1
------------------------------------------------------------------------------
                           ORCA GTO INTEGRAL CALCULATION
------------------------------------------------------------------------------

                         BASIS SET STATISTICS AND STARTUP INFO

 # of primitive gaussian shells          ...   26
 # of primitive gaussian functions       ...   66
 # of contracted shells                  ...   20
 # of contracted basis functions         ...   60
 Highest angular momentum                ...    3
 Maximum contraction depth               ...    4
 Integral package used                   ... LIBINT
 Integral threshhold            Thresh   ...  2.500e-11
 Primitive cut-off              TCut     ...  2.500e-12


------------------------------ INTEGRAL EVALUATION ----------------------------


 * One electron integrals 
 Pre-screening matrix                    ... done
 Shell pair data                         ... done (   0.000 sec)

-------------------------------------------------------------------------------
                                 ORCA SCF
-------------------------------------------------------------------------------

------------
SCF SETTINGS
------------
Hamiltonian:
 Ab initio Hamiltonian  Method          .... Hartree-Fock(GTOs)


General Settings:
 Integral files         IntName         .... H2_0_1_CASSCF-2-20_def2-qzvpp.sp
 Hartree-Fock type      HFTyp           .... CASSCF
 Total Charge           Charge          ....    0
 Multiplicity           Mult            ....    1
 Number of Electrons    NEL             ....    2
 Basis Dimension        Dim             ....   60
 Nuclear Repulsion      ENuc            ....      1.0558473417 Eh


Diagonalization of the overlap matrix:
Smallest eigenvalue                        ... 5.708e-05
Time for diagonalization                   ...    0.074 sec
Threshold for overlap eigenvalues          ... 1.000e-08
Number of eigenvalues below threshold      ... 0
Time for construction of square roots      ...    0.005 sec
Total time needed                          ...    0.079 sec

-------------------
DFT GRID GENERATION
-------------------

General Integration Accuracy     IntAcc      ...  4.340
Radial Grid Type                 RadialGrid  ... Gauss-Chebyshev
Angular Grid (max. acc.)         AngularGrid ... Lebedev-110
Angular grid pruning method      GridPruning ... 3 (G Style)
Weight generation scheme         WeightScheme... Becke
Basis function cutoff            BFCut       ...    1.0000e-11
Integration weight cutoff        WCut        ...    1.0000e-14
Grids for H and He will be reduced by one unit

# of grid points (after initial pruning)     ...   1588 (   0.0 sec)
# of grid points (after weights+screening)   ...   1560 (   0.0 sec)
nearest neighbour list constructed           ...    0.0 sec
Grid point re-assignment to atoms done       ...    0.0 sec
Grid point division into batches done        ...    0.0 sec
Reduced shell lists constructed in    0.0 sec

Total number of grid points                  ...     1560
Total number of batches                      ...       26
Average number of points per batch           ...       60
Average number of grid points per atom       ...      780
Average number of shells per batch           ...    19.15 (95.74%)
Average number of basis functions per batch  ...    57.44 (95.74%)
Average number of large shells per batch     ...    18.78 (98.07%)
Average number of large basis fcns per batch ...    56.19 (97.81%)
Maximum spatial batch extension              ...  15.26, 21.59, 21.59 au
Average spatial batch extension              ...   4.46,  7.66,  7.77 au

Time for grid setup =    0.007 sec

------------------------------
INITIAL GUESS: MODEL POTENTIAL
------------------------------
Loading Hartree-Fock densities                     ... done
Calculating cut-offs                               ... done
Setting up the integral package                    ... done
Initializing the effective Hamiltonian             ... done
Starting the Coulomb interaction                   ... done (   0.0 sec)
Reading the grid                                   ... done
Mapping shells                                     ... done
Starting the XC term evaluation                    ... done (   0.0 sec)
Transforming the Hamiltonian                       ... done (   0.0 sec)
Diagonalizing the Hamiltonian                      ... done (   0.0 sec)
Back transforming the eigenvectors                 ... done (   0.0 sec)
Now organizing SCF variables                       ... done
                      ------------------
                      INITIAL GUESS DONE (   0.1 sec)
                      ------------------


 ... the calculation is a CASSCF calculation -I'm leaving here GOOD LUCK!!!

-------------------------------------------------------------------------------
                              ORCA-CASSCF
-------------------------------------------------------------------------------

Setting up the integral package       ... done
Building the CAS space                ... done (210 configurations for Mult=1)
----------------
GENERAL CI SETUP
----------------

Checking configurations                         ... done
Determining NSOMO,NDOMO and NVMO                ... done
Building up the tree                            ... done
Building N-1 electron tree                      ... done
Building RI configuration space                 ... done
Analyzing the RI configuration space            ... done
Determining NDOMO,NSOMO,NVMO for RI space       ... done
Determination of address arrays                 ... done
Looking for max. no of open shells              ... done
Setting up coupling coefficient container       ... Memory for address arrays  		      ... done
Make address arrays			      ... done
Memory for buffers 			      ... done
Setting up spin-function prototypes	      ... (MAXOPEN=2) 0 2 4 done
Trivial cases - DOMO's			      ... done (  0.0 MB)
Number of open shells			    ...  0
domo->virtual excitations			... done (  0.0 MB)
domo->somo excitations				... done (  0.0 MB)
somo->virtual excitations			... done (  0.0 MB)
somo->somo excitations				... done (  0.0 MB)
Number of open shells			    ...  2
domo->virtual excitations			... done (  0.0 MB)
domo->somo excitations				... done (  0.0 MB)
somo->virtual excitations			... done (  0.0 MB)
somo->somo excitations				... done (  0.0 MB)
Coupling container construction done
done
Now recording sub-block dimensions              ... done
Memory used for TGeneralCI arrays =     0.1 MB
  Original space  =     0.0
  RI       space  =     0.0
  Address arrays  =     0.0
  Coupling coeffs =     0.0
Multiplicity                          ...       1
# of electrons                        ...       2
# of orbitals                         ...      20
# of roots requested                  ...       1
Configuration space:
# of configurations                   ...     210
# of CSF's                            ...     210
# of rejected configurations          ...       0
Min. # of SOMOs                       ...       0
Max. # of SOMOs                       ...       2
Max. # of DOMOs                       ...       1
Max. # of VMOs                        ...      19
RI Configuration space:
# of configurations                   ...     210
# of CSF's                            ...     210
# of rejected configurations          ...       0
Min. # of SOMOs                       ...       0
Max. # of SOMOs                       ...       2
Max. # of DOMOs                       ...       1
Max. # of VMOs                        ...      19
(N-1) Electron Configuration space:
# of configurations                   ...      20
CSF dimensions:
      0 SOMOs give     1 CSFs
      2 SOMOs give     1 CSFs


SYSTEM-SPECIFIC SETTINGS:
Number of active electrons          ...    2
Number of active orbitals           ...   20
Total number of electrons           ...    2
Total number of orbitals            ...   60

Determined orbital ranges:
   Internal       0 -   -1 (   0 orbitals)
   Active         0 -   19 (  20 orbitals)
   External      20 -   59 (  40 orbitals)
Number of rotation parameters      ...    800

CI-STEP:
CI strategy                         ... General CI
Number of multiplicity blocks       ...    1
BLOCK  1 WEIGHT=   1.0000
  Multiplicity                      ...    1
  #(Configurations)                 ...  210
  #(CSFs)                           ...  210
  #(Roots)                          ...    1
    ROOT=0 WEIGHT=    1.000000

  PrintLevel                        ...    1
  N(GuessMat)                       ...       512
  MaxDim(CI)                        ...        10
  MaxIter(CI)                       ...        64
  Energy Tolerance CI               ...  2.50e-09
  Residual Tolerance CI             ...  2.50e-09
  Shift(CI)                         ...  1.00e-04

INTEGRAL-TRANSFORMATION-STEP:
  Algorithm                         ... EXACT

ORBITAL-IMPROVEMENT-STEP:
  Algorithm                         ... SuperCI(PT)
  Default Parametrization           ... CAYLEY
  Act-Act rotations                 ... depends on algorithm used

  Note: SuperCI(PT) will ignore FreezeIE, FreezeAct and FreezeGrad. In general Default settings are encouraged.
        In conjunction with ShiftUp, ShiftDn or GradScaling the performance of SuperCI(PT) is less optimal.  

  MaxRot                            ... 2.00e-01 
  Max. no of vectors (DIIS)         ... 15
  DThresh (cut-off) metric          ... 1.00e-06
  Switch step at gradient           ...  3.00e-02 
  Switch step at iteration          ...        50   
  Switch step to                    ... SuperCI(PT)    

SCF-SETTINGS:
  Incremental                       ... on
  RIJCOSX approximation             ... off
  RI-JK approximation               ... off
  AO integral handling              ... DIRECT
  Integral Neglect Thresh           ...  2.50e-11
  Primitive cutoff TCut             ...  2.50e-12
  Energy convergence tolerance      ...  2.50e-08
  Orbital gradient convergence      ...  2.50e-04
  Max. number of iterations         ...        75  


FINAL ORBITALS:
  Active   Orbitals                 ... natural 
  Internal Orbitals                 ... canonical 
  External Orbitals                 ... canonical 

------------------
CAS-SCF ITERATIONS
------------------


MACRO-ITERATION   1: 
   --- Inactive Energy E0 = 1.05584734 Eh
CI-ITERATION   0: 
    -1.094248289   0.000000000000 (    0.01)
   CI-PROBLEM SOLVED
   DENSITIES MADE

                 <<<<<<<<<<<<<<<<<<INITIAL CI STATE CHECK>>>>>>>>>>>>>>>>>>

BLOCK  1 MULT= 1 NROOTS= 1 
ROOT   0:  E=      -1.0942482886 Eh
      0.98183 [     0]: 20000000000000000000
      0.00381 [     2]: 10100000000000000000

                 <<<<<<<<<<<<<<<<<<INITIAL CI STATE CHECK>>>>>>>>>>>>>>>>>>

   E(CAS)=    -1.094248289 Eh DE=     0.000000000
   --- Energy gap subspaces: Ext-Act = 0.000   Act-Int = 0.600
   N(occ)=  1.97018 0.00291 0.00655 0.00285 0.00285 0.00362 0.00123 0.00003 0.00003 0.00432 0.00199 0.00007 0.00007 0.00093 0.00111 0.00111 0.00004 0.00004 0.00007 0.00001
   ||g|| =      0.197265907 Max(G)=     0.165648037 Rot=24,0
   --- Orbital Update [SuperCI(PT)]
   --- Canonicalize Internal Space
   --- Canonicalize External Space
   --- SX_PT (Skipped TA=4 IT=0): ||X|| =      2.075352436 Max(X)(24,9) =      0.957069247 
   --- SFit(Active Orbitals)

MACRO-ITERATION   2: 
   --- Inactive Energy E0 = 1.05584734 Eh
CI-ITERATION   0: 
    -1.098940080   0.000000000000 (    0.01)
   CI-PROBLEM SOLVED
   DENSITIES MADE
   E(CAS)=    -1.098940080 Eh DE=    -0.004691791
   --- Energy gap subspaces: Ext-Act = -0.544   Act-Int = 0.600
   N(occ)=  1.97217 0.00228 0.00353 0.00230 0.00230 0.00346 0.00179 0.00006 0.00006 0.00521 0.00242 0.00010 0.00010 0.00122 0.00134 0.00134 0.00007 0.00007 0.00015 0.00001
   ||g|| =      0.106548317 Max(G)=     0.066050238 Rot=24,0
   --- Orbital Update [SuperCI(PT)]
   --- Canonicalize Internal Space
   --- Canonicalize External Space
   --- SX_PT (Skipped TA=4 IT=0): ||X|| =      1.085575080 Max(X)(23,9) =     -0.484871321 
   --- SFit(Active Orbitals)

MACRO-ITERATION   3: 
   --- Inactive Energy E0 = 1.05584734 Eh
CI-ITERATION   0: 
    -1.103068592   0.000000000000 (    0.01)
   CI-PROBLEM SOLVED
   DENSITIES MADE
   E(CAS)=    -1.103068592 Eh DE=    -0.004128513
   --- Energy gap subspaces: Ext-Act = -2.461   Act-Int = 0.600
   N(occ)=  1.97114 0.00252 0.00314 0.00257 0.00257 0.00348 0.00200 0.00004 0.00004 0.00559 0.00232 0.00008 0.00008 0.00126 0.00142 0.00142 0.00007 0.00007 0.00017 0.00001
   ||g|| =      0.038673788 Max(G)=     0.034072139 Rot=24,0
   --- Orbital Update [SuperCI(PT)]
   --- Canonicalize Internal Space
   --- Canonicalize External Space
   --- SX_PT (Skipped TA=4 IT=0): ||X|| =      0.300832918 Max(X)(20,9) =     -0.174044435 
   --- SFit(Active Orbitals)

MACRO-ITERATION   4: 
   --- Inactive Energy E0 = 1.05584734 Eh
CI-ITERATION   0: 
    -1.103550492   0.000000000000 (    0.01)
   CI-PROBLEM SOLVED
   DENSITIES MADE
   E(CAS)=    -1.103550492 Eh DE=    -0.000481900
   --- Energy gap subspaces: Ext-Act = -2.981   Act-Int = 0.600
   N(occ)=  1.97077 0.00251 0.00326 0.00263 0.00263 0.00352 0.00190 0.00004 0.00004 0.00581 0.00236 0.00008 0.00008 0.00125 0.00140 0.00140 0.00007 0.00007 0.00017 0.00001
   ||g|| =      0.018350159 Max(G)=    -0.013257795 Rot=59,0
   --- Orbital Update [SuperCI(PT)]
   --- Canonicalize Internal Space
   --- Canonicalize External Space
   --- SX_PT (Skipped TA=4 IT=0): ||X|| =      0.074075136 Max(X)(59,6) =     -0.032891071 
   --- SFit(Active Orbitals)

MACRO-ITERATION   5: 
   --- Inactive Energy E0 = 1.05584734 Eh
CI-ITERATION   0: 
    -1.103570738   0.000000000000 (    0.01)
   CI-PROBLEM SOLVED
   DENSITIES MADE
   E(CAS)=    -1.103570738 Eh DE=    -0.000020246
   --- Energy gap subspaces: Ext-Act = -3.191   Act-Int = 0.600
   N(occ)=  1.97064 0.00249 0.00338 0.00263 0.00263 0.00352 0.00186 0.00004 0.00004 0.00586 0.00236 0.00008 0.00008 0.00125 0.00140 0.00140 0.00007 0.00007 0.00017 0.00001
   ||g|| =      0.009294257 Max(G)=    -0.007362015 Rot=59,0
   --- Orbital Update [SuperCI(PT)]
   --- Canonicalize Internal Space
   --- Canonicalize External Space
   --- SX_PT (Skipped TA=4 IT=0): ||X|| =      0.040388558 Max(X)(48,6) =     -0.016901786 
   --- SFit(Active Orbitals)

MACRO-ITERATION   6: 
   --- Inactive Energy E0 = 1.05584734 Eh
CI-ITERATION   0: 
    -1.103575074   0.000000000000 (    0.01)
   CI-PROBLEM SOLVED
   DENSITIES MADE
   E(CAS)=    -1.103575074 Eh DE=    -0.000004336
   --- Energy gap subspaces: Ext-Act = -3.465   Act-Int = 0.600
   N(occ)=  1.97054 0.00249 0.00348 0.00264 0.00264 0.00351 0.00184 0.00004 0.00004 0.00590 0.00236 0.00008 0.00008 0.00125 0.00139 0.00139 0.00007 0.00007 0.00017 0.00001
   ||g|| =      0.003400945 Max(G)=    -0.002603546 Rot=59,0
   --- Orbital Update [SuperCI(PT)]
   --- Canonicalize Internal Space
   --- Canonicalize External Space
   --- SX_PT (Skipped TA=4 IT=0): ||X|| =      0.020224944 Max(X)(34,6) =     -0.009127773 
   --- SFit(Active Orbitals)

MACRO-ITERATION   7: 
   --- Inactive Energy E0 = 1.05584734 Eh
CI-ITERATION   0: 
    -1.103575872   0.000000000000 (    0.01)
   CI-PROBLEM SOLVED
   DENSITIES MADE
   E(CAS)=    -1.103575872 Eh DE=    -0.000000798
   --- Energy gap subspaces: Ext-Act = -3.510   Act-Int = 0.600
   N(occ)=  1.97054 0.00249 0.00349 0.00264 0.00264 0.00351 0.00184 0.00004 0.00004 0.00590 0.00236 0.00008 0.00008 0.00125 0.00139 0.00139 0.00007 0.00007 0.00017 0.00001
   ||g|| =      0.001695721 Max(G)=     0.001255416 Rot=59,0
   --- Orbital Update [SuperCI(PT)]
   --- Canonicalize Internal Space
   --- Canonicalize External Space
   --- SX_PT (Skipped TA=4 IT=0): ||X|| =      0.012235933 Max(X)(20,9) =     -0.006263120 
   --- SFit(Active Orbitals)

MACRO-ITERATION   8: 
   --- Inactive Energy E0 = 1.05584734 Eh
CI-ITERATION   0: 
    -1.103576146   0.000000000000 (    0.01)
   CI-PROBLEM SOLVED
   DENSITIES MADE
   E(CAS)=    -1.103576146 Eh DE=    -0.000000274
   --- Energy gap subspaces: Ext-Act = -3.547   Act-Int = 0.600
   N(occ)=  1.97053 0.00249 0.00350 0.00264 0.00264 0.00351 0.00183 0.00004 0.00004 0.00591 0.00236 0.00008 0.00008 0.00125 0.00139 0.00139 0.00007 0.00007 0.00017 0.00001
   ||g|| =      0.000571270 Max(G)=     0.000364247 Rot=48,0
   --- Orbital Update [SuperCI(PT)]
   --- Canonicalize Internal Space
   --- Canonicalize External Space
   --- SX_PT (Skipped TA=4 IT=0): ||X|| =      0.003659249 Max(X)(34,6) =     -0.002805855 
   --- SFit(Active Orbitals)

MACRO-ITERATION   9: 
   --- Inactive Energy E0 = 1.05584734 Eh
CI-ITERATION   0: 
    -1.103576181   0.000000000000 (    0.01)
   CI-PROBLEM SOLVED
   DENSITIES MADE
   E(CAS)=    -1.103576181 Eh DE=    -0.000000035
   --- Energy gap subspaces: Ext-Act = -3.540   Act-Int = 0.600
   N(occ)=  1.97053 0.00249 0.00349 0.00264 0.00264 0.00351 0.00184 0.00004 0.00004 0.00590 0.00236 0.00008 0.00008 0.00125 0.00139 0.00139 0.00007 0.00007 0.00017 0.00001
   ||g|| =      0.000146811 Max(G)=    -0.000132416 Rot=24,0
                     ---- THE CAS-SCF GRADIENT HAS CONVERGED ----
                            --- FINALIZING ORBITALS ---
                    ---- DOING ONE FINAL ITERATION FOR PRINTING ----
   --- Forming Natural Orbitals
   --- Canonicalize Internal Space
   --- Canonicalize External Space

MACRO-ITERATION  10: 
   --- Inactive Energy E0 = 1.05584734 Eh
   --- All densities will be recomputed
CI-ITERATION   0: 
    -1.103576181   0.000000000000 (    0.01)
   CI-PROBLEM SOLVED
   DENSITIES MADE
   E(CAS)=    -1.103576181 Eh DE=    -0.000000000
   --- Energy gap subspaces: Ext-Act = -6.861   Act-Int = 0.600
   N(occ)=  1.97493 0.00947 0.00675 0.00395 0.00395 0.00015 0.00014 0.00011 0.00011 0.00009 0.00008 0.00008 0.00008 0.00008 0.00001 0.00001 0.00000 0.00000 0.00000 0.00000
   ||g|| =      0.000146811 Max(G)=     0.000092795 Rot=34,0
--------------
CASSCF RESULTS
--------------

Final CASSCF energy       : -1.103576181 Eh     -30.0298 eV

----------------
ORBITAL ENERGIES
----------------

  NO   OCC          E(Eh)            E(eV) 
   0   1.9749      -0.674227       -18.3466 
   1   0.0095       0.971980        26.4489 
   2   0.0068       1.059468        28.8296 
   3   0.0040       1.189765        32.3752 
   4   0.0040       1.189765        32.3752 
   5   0.0001       2.950255        80.2805 
   6   0.0001       3.683580       100.2353 
   7   0.0001       3.321630        90.3861 
   8   0.0001       3.321630        90.3861 
   9   0.0001       4.202275       114.3497 
  10   0.0001       4.287944       116.6809 
  11   0.0001       4.287944       116.6809 
  12   0.0001       3.341370        90.9233 
  13   0.0001       3.341944        90.9389 
  14   0.0000       7.690072       209.2575 
  15   0.0000       6.099462       165.9748 
  16   0.0000       1.284107        34.9423 
  17   0.0000       1.284107        34.9423 
  18   0.0000       1.230545        33.4848 
  19   0.0000       0.293290         7.9808 
  20   0.0000       0.828721        22.5506 
  21   0.0000       1.833139        49.8822 
  22   0.0000       2.406773        65.4916 
  23   0.0000       2.558473        69.6196 
  24   0.0000       2.579010        70.1784 
  25   0.0000       2.579010        70.1784 
  26   0.0000       2.762218        75.1638 
  27   0.0000       3.256337        88.6094 
  28   0.0000       3.256337        88.6094 
  29   0.0000       4.552208       123.8719 
  30   0.0000       4.552208       123.8719 
  31   0.0000       4.775351       129.9439 
  32   0.0000       5.776589       157.1890 
  33   0.0000       5.776589       157.1890 
  34   0.0000       5.784128       157.3941 
  35   0.0000       5.882929       160.0826 
  36   0.0000       5.888739       160.2407 
  37   0.0000       6.186807       168.3516 
  38   0.0000       6.875568       187.0937 
  39   0.0000       7.111039       193.5012 
  40   0.0000       7.111039       193.5012 
  41   0.0000       7.119449       193.7301 
  42   0.0000       7.119449       193.7301 
  43   0.0000       7.146014       194.4529 
  44   0.0000       7.146014       194.4529 
  45   0.0000       7.555884       205.6061 
  46   0.0000       7.569013       205.9633 
  47   0.0000       7.574248       206.1058 
  48   0.0000       8.046828       218.9653 
  49   0.0000       8.484234       230.8678 
  50   0.0000       8.484234       230.8678 
  51   0.0000       9.931555       270.2514 
  52   0.0000      10.623051       289.0679 
  53   0.0000      10.623051       289.0679 
  54   0.0000      11.372331       309.4569 
  55   0.0000      11.992801       326.3407 
  56   0.0000      15.082014       410.4025 
  57   0.0000      15.082014       410.4025 
  58   0.0000      15.665791       426.2879 
  59   0.0000      16.361851       445.2286 


---------------------------------------------
CAS-SCF STATES FOR BLOCK  1 MULT= 1 NROOTS= 1
---------------------------------------------

ROOT   0:  E=      -1.1035761812 Eh
      0.98747 [     0]: 20000000000000000000
      0.00473 [    20]: 02000000000000000000
      0.00338 [    39]: 00200000000000000000


--------------
DENSITY MATRIX
--------------

                  0          1          2          3          4          5    
      0       1.974933  -0.000000   0.000000   0.000000  -0.000000  -0.000000
      1      -0.000000   0.009467  -0.000000  -0.000000  -0.000000  -0.000000
      2       0.000000  -0.000000   0.006750   0.000000   0.000000   0.000000
      3       0.000000  -0.000000   0.000000   0.003950   0.000000   0.000000
      4      -0.000000  -0.000000   0.000000   0.000000   0.003950  -0.000000
      5      -0.000000  -0.000000   0.000000   0.000000  -0.000000   0.000145
      6      -0.000000  -0.000000  -0.000000   0.000000  -0.000000   0.000000
      7       0.000000   0.000000   0.000000   0.000000   0.000000   0.000000
      8      -0.000000  -0.000000  -0.000000   0.000000  -0.000000  -0.000000
      9      -0.000000  -0.000000   0.000000  -0.000000   0.000000  -0.000000
     10       0.000000   0.000000  -0.000000   0.000000   0.000000  -0.000000
     11       0.000000   0.000000  -0.000000  -0.000000   0.000000   0.000000
     12      -0.000000  -0.000000   0.000000  -0.000000   0.000000  -0.000000
     13      -0.000000  -0.000000  -0.000000   0.000000  -0.000000   0.000000
     14       0.000000   0.000000   0.000000   0.000000  -0.000000   0.000000
     15       0.000000   0.000000   0.000000   0.000000  -0.000000  -0.000000
     16       0.000000   0.000000   0.000000  -0.000000  -0.000000   0.000000
     17      -0.000000  -0.000000  -0.000000  -0.000000   0.000000  -0.000000
     18       0.000000   0.000000   0.000000  -0.000000   0.000000  -0.000000
     19      -0.000000   0.000000   0.000000   0.000000  -0.000000   0.000000
                  6          7          8          9         10         11    
      0      -0.000000   0.000000  -0.000000  -0.000000   0.000000   0.000000
      1      -0.000000   0.000000  -0.000000  -0.000000   0.000000   0.000000
      2      -0.000000   0.000000  -0.000000   0.000000  -0.000000  -0.000000
      3       0.000000   0.000000   0.000000  -0.000000   0.000000  -0.000000
      4      -0.000000   0.000000  -0.000000   0.000000   0.000000   0.000000
      5       0.000000   0.000000  -0.000000  -0.000000  -0.000000   0.000000
      6       0.000143  -0.000000   0.000000   0.000000   0.000000  -0.000000
      7      -0.000000   0.000109   0.000000  -0.000000  -0.000000  -0.000000
      8       0.000000   0.000000   0.000109   0.000000  -0.000000   0.000000
      9       0.000000  -0.000000   0.000000   0.000092   0.000000  -0.000000
     10       0.000000  -0.000000  -0.000000   0.000000   0.000084   0.000000
     11      -0.000000  -0.000000   0.000000  -0.000000   0.000000   0.000084
     12       0.000000  -0.000000  -0.000000   0.000000   0.000000  -0.000000
     13      -0.000000   0.000000  -0.000000  -0.000000  -0.000000   0.000000
     14      -0.000000  -0.000000   0.000000   0.000000  -0.000000  -0.000000
     15      -0.000000  -0.000000   0.000000   0.000000   0.000000  -0.000000
     16      -0.000000  -0.000000   0.000000  -0.000000  -0.000000   0.000000
     17       0.000000   0.000000  -0.000000   0.000000   0.000000  -0.000000
     18      -0.000000   0.000000  -0.000000  -0.000000  -0.000000   0.000000
     19      -0.000000  -0.000000   0.000000  -0.000000   0.000000  -0.000000
                 12         13         14         15         16         17    
      0      -0.000000  -0.000000   0.000000   0.000000   0.000000  -0.000000
      1      -0.000000  -0.000000   0.000000   0.000000   0.000000  -0.000000
      2       0.000000  -0.000000   0.000000   0.000000   0.000000  -0.000000
      3      -0.000000   0.000000   0.000000   0.000000  -0.000000  -0.000000
      4       0.000000  -0.000000  -0.000000  -0.000000  -0.000000   0.000000
      5      -0.000000   0.000000   0.000000  -0.000000   0.000000  -0.000000
      6       0.000000  -0.000000  -0.000000  -0.000000  -0.000000   0.000000
      7      -0.000000   0.000000  -0.000000  -0.000000  -0.000000   0.000000
      8      -0.000000  -0.000000   0.000000   0.000000   0.000000  -0.000000
      9       0.000000  -0.000000   0.000000   0.000000  -0.000000   0.000000
     10       0.000000  -0.000000  -0.000000   0.000000  -0.000000   0.000000
     11      -0.000000   0.000000  -0.000000  -0.000000   0.000000  -0.000000
     12       0.000082   0.000000   0.000000   0.000000  -0.000000   0.000000
     13       0.000000   0.000081   0.000000   0.000000   0.000000  -0.000000
     14       0.000000   0.000000   0.000010  -0.000000  -0.000000   0.000000
     15       0.000000   0.000000  -0.000000   0.000009   0.000000   0.000000
     16      -0.000000   0.000000  -0.000000   0.000000   0.000000   0.000000
     17       0.000000  -0.000000   0.000000   0.000000   0.000000   0.000000
     18      -0.000000   0.000000   0.000000  -0.000000   0.000000  -0.000000
     19       0.000000  -0.000000  -0.000000   0.000000  -0.000000   0.000000
                  18         19    
      0       0.000000  -0.000000
      1       0.000000   0.000000
      2       0.000000   0.000000
      3      -0.000000   0.000000
      4       0.000000  -0.000000
      5      -0.000000   0.000000
      6      -0.000000  -0.000000
      7       0.000000  -0.000000
      8      -0.000000   0.000000
      9      -0.000000  -0.000000
     10      -0.000000   0.000000
     11       0.000000  -0.000000
     12      -0.000000   0.000000
     13       0.000000  -0.000000
     14       0.000000  -0.000000
     15      -0.000000   0.000000
     16       0.000000  -0.000000
     17      -0.000000   0.000000
     18       0.000000   0.000000
     19       0.000000   0.000000
Trace of the electron density:  2.000000

-----------------
ENERGY COMPONENTS
-----------------

One electron energy          :     -2.848293568 Eh         -77.5060 eV
Two electron energy          :      0.688870045 Eh          18.7451 eV
Nuclear repulsion energy     :      1.055847342 Eh          28.7311 eV
                               ----------------
                                   -1.103576181

Kinetic energy               :      1.492832164 Eh          40.6220 eV
Potential energy             :     -2.596408345 Eh         -70.6519 eV
Virial ratio                 :     -1.739250003 
                               ----------------
                                   -1.103576181

Core energy                  :      1.055847342 Eh       28.7311 eV


----------------------------
LOEWDIN ORBITAL-COMPOSITIONS
----------------------------

                      0         1         2         3         4         5   
                  -0.67423   0.97198   1.05947   1.18977   1.18977   2.95026
                   1.97493   0.00947   0.00675   0.00395   0.00395   0.00015
                  --------  --------  --------  --------  --------  --------
 0 H  s              47.2       9.8      35.6       0.0       0.0       2.9
 0 H  pz              0.0       0.0       0.0      14.4      32.7       0.0
 0 H  px              2.4      35.5      12.3       0.0       0.0      23.3
 0 H  py              0.0       0.0       0.0      32.7      14.4       0.0
 0 H  dz2             0.1       1.0       0.5       0.0       0.0       5.1
 0 H  dxz             0.0       0.0       0.0       0.8       1.9       0.0
 0 H  dx2y2           0.2       3.1       1.4       0.0       0.0      15.3
 0 H  dxy             0.0       0.0       0.0       1.9       0.8       0.0
 0 H  f+1             0.0       0.2       0.1       0.0       0.0       1.3
 0 H  f+3             0.0       0.3       0.1       0.0       0.0       2.1
 1 H  s              47.2       9.8      35.6       0.0       0.0       2.9
 1 H  pz              0.0       0.0       0.0      14.4      32.7       0.0
 1 H  px              2.4      35.5      12.3       0.0       0.0      23.3
 1 H  py              0.0       0.0       0.0      32.7      14.4       0.0
 1 H  dz2             0.1       1.0       0.5       0.0       0.0       5.1
 1 H  dxz             0.0       0.0       0.0       0.8       1.9       0.0
 1 H  dx2y2           0.2       3.1       1.4       0.0       0.0      15.3
 1 H  dxy             0.0       0.0       0.0       1.9       0.8       0.0
 1 H  f+1             0.0       0.2       0.1       0.0       0.0       1.3
 1 H  f+3             0.0       0.3       0.1       0.0       0.0       2.1

                      6         7         8         9        10        11   
                   3.68358   3.32163   3.32163   4.20227   4.28794   4.28794
                   0.00014   0.00011   0.00011   0.00009   0.00008   0.00008
                  --------  --------  --------  --------  --------  --------
 0 H  s              17.9       0.0       0.0      20.7       0.0       0.0
 0 H  pz              0.0       9.0       9.6       0.0       7.0      28.6
 0 H  px             17.3       0.0       0.0      12.8       0.0       0.0
 0 H  py              0.0       9.6       9.0       0.0      28.6       7.0
 0 H  dz2             2.5       0.0       0.0       3.3       0.0       0.0
 0 H  dxz             0.0      12.6      13.6       0.0       2.3       9.4
 0 H  dx2y2           7.5       0.0       0.0      10.0       0.0       0.0
 0 H  dxy             0.0      13.6      12.6       0.0       9.4       2.3
 0 H  f0              0.0       1.0       1.0       0.0       0.2       0.8
 0 H  f+1             1.8       0.0       0.0       1.2       0.0       0.0
 0 H  f-1             0.0       0.2       0.1       0.0       0.1       0.0
 0 H  f+2             0.0       1.6       1.7       0.0       0.3       1.3
 0 H  f+3             3.0       0.0       0.0       2.0       0.0       0.0
 0 H  f-3             0.0       2.6       2.4       0.0       2.0       0.5
 1 H  s              17.9       0.0       0.0      20.7       0.0       0.0
 1 H  pz              0.0       9.0       9.6       0.0       7.0      28.6
 1 H  px             17.3       0.0       0.0      12.8       0.0       0.0
 1 H  py              0.0       9.6       9.0       0.0      28.6       7.0
 1 H  dz2             2.5       0.0       0.0       3.3       0.0       0.0
 1 H  dxz             0.0      12.6      13.6       0.0       2.3       9.4
 1 H  dx2y2           7.5       0.0       0.0      10.0       0.0       0.0
 1 H  dxy             0.0      13.6      12.6       0.0       9.4       2.3
 1 H  f0              0.0       1.0       1.0       0.0       0.2       0.8
 1 H  f+1             1.8       0.0       0.0       1.2       0.0       0.0
 1 H  f-1             0.0       0.2       0.1       0.0       0.1       0.0
 1 H  f+2             0.0       1.6       1.7       0.0       0.3       1.3
 1 H  f+3             3.0       0.0       0.0       2.0       0.0       0.0
 1 H  f-3             0.0       2.6       2.4       0.0       2.0       0.5

                     12        13        14        15        16        17   
                   3.34137   3.34194   7.69007   6.09946   1.28411   1.28411
                   0.00008   0.00008   0.00001   0.00001   0.00000   0.00000
                  --------  --------  --------  --------  --------  --------
 0 H  s               0.0       0.0      18.5       0.0       0.0       0.0
 0 H  pz              0.0       0.0       0.0       0.0      14.6      33.7
 0 H  px              0.0       0.0      17.0       0.0       0.0       0.0
 0 H  py              0.0       0.0       0.0       0.0      33.7      14.6
 0 H  dz2            34.3       0.0       2.8       0.0       0.0       0.0
 0 H  dxz             0.0       0.0       0.0       0.0       0.5       1.1
 0 H  dyz             0.0      45.7       0.0      34.2       0.0       0.0
 0 H  dx2y2          11.4       0.0       8.4       0.0       0.0       0.0
 0 H  dxy             0.0       0.0       0.0       0.0       1.1       0.5
 0 H  f+1             2.7       0.0       1.2       0.0       0.0       0.0
 0 H  f-2             0.0       4.3       0.0      15.8       0.0       0.0
 0 H  f+3             1.6       0.0       2.1       0.0       0.0       0.0
 1 H  s               0.0       0.0      18.5       0.0       0.0       0.0
 1 H  pz              0.0       0.0       0.0       0.0      14.6      33.7
 1 H  px              0.0       0.0      17.0       0.0       0.0       0.0
 1 H  py              0.0       0.0       0.0       0.0      33.7      14.6
 1 H  dz2            34.3       0.0       2.8       0.0       0.0       0.0
 1 H  dxz             0.0       0.0       0.0       0.0       0.5       1.1
 1 H  dyz             0.0      45.7       0.0      34.2       0.0       0.0
 1 H  dx2y2          11.4       0.0       8.4       0.0       0.0       0.0
 1 H  dxy             0.0       0.0       0.0       0.0       1.1       0.5
 1 H  f+1             2.7       0.0       1.2       0.0       0.0       0.0
 1 H  f-2             0.0       4.3       0.0      15.8       0.0       0.0
 1 H  f+3             1.6       0.0       2.1       0.0       0.0       0.0

                     18        19        20        21        22        23   
                   1.23054   0.29329   0.82872   1.83314   2.40677   2.55847
                   0.00000   0.00000   0.00000   0.00000   0.00000   0.00000
                  --------  --------  --------  --------  --------  --------
 0 H  s              42.5      49.7      49.0       2.7      17.1       0.0
 0 H  px              2.1       0.2       0.3      45.1      21.2       0.0
 0 H  dz2             1.4       0.0       0.1       0.5       2.3      32.0
 0 H  dx2y2           4.1       0.1       0.4       1.5       7.0      10.7
 0 H  f+1             0.0       0.0       0.0       0.1       0.9       4.6
 0 H  f+3             0.0       0.0       0.1       0.1       1.5       2.7
 1 H  s              42.5      49.7      49.0       2.7      17.1       0.0
 1 H  px              2.1       0.2       0.3      45.1      21.2       0.0
 1 H  dz2             1.4       0.0       0.1       0.5       2.3      32.0
 1 H  dx2y2           4.1       0.1       0.4       1.5       7.0      10.7
 1 H  f+1             0.0       0.0       0.0       0.1       0.9       4.6
 1 H  f+3             0.0       0.0       0.1       0.1       1.5       2.7

                     24        25        26        27        28        29   
                   2.57901   2.57901   2.76222   3.25634   3.25634   4.55221
                   0.00000   0.00000   0.00000   0.00000   0.00000   0.00000
                  --------  --------  --------  --------  --------  --------
 0 H  s               0.0       0.0       6.5       0.0       0.0       0.0
 0 H  pz              9.6       0.0       0.0       8.0       0.2      32.8
 0 H  px              0.0       0.0      11.2       0.0       0.0       0.0
 0 H  py              0.0       9.6       0.0       0.2       8.0       4.1
 0 H  dz2             0.0       0.0       6.7       0.0       0.0       0.0
 0 H  dxz            35.5       0.0       0.0      32.1       0.7       9.2
 0 H  dx2y2           0.0       0.0      20.0       0.0       0.0       0.0
 0 H  dxy             0.0      35.5       0.0       0.7      32.1       1.1
 0 H  f0              1.8       0.0       0.0       3.3       0.1       1.0
 0 H  f+1             0.0       0.0       2.1       0.0       0.0       0.0
 0 H  f-1             0.0       0.3       0.0       0.0       0.5       0.0
 0 H  f+2             3.1       0.0       0.0       5.5       0.1       1.6
 0 H  f+3             0.0       0.0       3.5       0.0       0.0       0.0
 0 H  f-3             0.0       4.6       0.0       0.2       8.3       0.3
 1 H  s               0.0       0.0       6.5       0.0       0.0       0.0
 1 H  pz              9.6       0.0       0.0       8.0       0.2      32.8
 1 H  px              0.0       0.0      11.2       0.0       0.0       0.0
 1 H  py              0.0       9.6       0.0       0.2       8.0       4.1
 1 H  dz2             0.0       0.0       6.7       0.0       0.0       0.0
 1 H  dxz            35.5       0.0       0.0      32.1       0.7       9.2
 1 H  dx2y2           0.0       0.0      20.0       0.0       0.0       0.0
 1 H  dxy             0.0      35.5       0.0       0.7      32.1       1.1
 1 H  f0              1.8       0.0       0.0       3.3       0.1       1.0
 1 H  f+1             0.0       0.0       2.1       0.0       0.0       0.0
 1 H  f-1             0.0       0.3       0.0       0.0       0.5       0.0
 1 H  f+2             3.1       0.0       0.0       5.5       0.1       1.6
 1 H  f+3             0.0       0.0       3.5       0.0       0.0       0.0
 1 H  f-3             0.0       4.6       0.0       0.2       8.3       0.3

                     30        31        32        33        34        35   
                   4.55221   4.77535   5.77659   5.77659   5.78413   5.88293
                   0.00000   0.00000   0.00000   0.00000   0.00000   0.00000
                  --------  --------  --------  --------  --------  --------
 0 H  s               0.0       0.0       0.0       0.0       8.3       0.0
 0 H  pz              4.1       0.0       0.0       0.0       0.0       0.0
 0 H  px              0.0       0.0       0.0       0.0      10.5       0.0
 0 H  py             32.8       0.0       0.0       0.0       0.0       0.0
 0 H  dz2             0.0       0.0       0.0       0.0       3.5       0.0
 0 H  dxz             1.1       0.0       0.0       0.0       0.0       0.0
 0 H  dyz             0.0      47.4       0.0       0.0       0.0      30.1
 0 H  dx2y2           0.0       0.0       0.0       0.0      10.6       0.0
 0 H  dxy             9.2       0.0       0.0       0.0       0.0       0.0
 0 H  f0              0.1       0.0      29.3       2.0       0.0       0.0
 0 H  f+1             0.0       0.0       0.0       0.0       6.4       0.0
 0 H  f-1             0.2       0.0       2.9      43.9       0.0       0.0
 0 H  f+2             0.2       0.0      17.6       1.2       0.0       0.0
 0 H  f-2             0.0       2.6       0.0       0.0       0.0      19.9
 0 H  f+3             0.0       0.0       0.0       0.0      10.6       0.0
 0 H  f-3             2.4       0.0       0.2       2.9       0.0       0.0
 1 H  s               0.0       0.0       0.0       0.0       8.3       0.0
 1 H  pz              4.1       0.0       0.0       0.0       0.0       0.0
 1 H  px              0.0       0.0       0.0       0.0      10.5       0.0
 1 H  py             32.8       0.0       0.0       0.0       0.0       0.0
 1 H  dz2             0.0       0.0       0.0       0.0       3.5       0.0
 1 H  dxz             1.1       0.0       0.0       0.0       0.0       0.0
 1 H  dyz             0.0      47.4       0.0       0.0       0.0      30.1
 1 H  dx2y2           0.0       0.0       0.0       0.0      10.6       0.0
 1 H  dxy             9.2       0.0       0.0       0.0       0.0       0.0
 1 H  f0              0.1       0.0      29.3       2.0       0.0       0.0
 1 H  f+1             0.0       0.0       0.0       0.0       6.4       0.0
 1 H  f-1             0.2       0.0       2.9      43.9       0.0       0.0
 1 H  f+2             0.2       0.0      17.6       1.2       0.0       0.0
 1 H  f-2             0.0       2.6       0.0       0.0       0.0      19.9
 1 H  f+3             0.0       0.0       0.0       0.0      10.6       0.0
 1 H  f-3             2.4       0.0       0.2       2.9       0.0       0.0

                     36        37        38        39        40        41   
                   5.88874   6.18681   6.87557   7.11104   7.11104   7.11945
                   0.00000   0.00000   0.00000   0.00000   0.00000   0.00000
                  --------  --------  --------  --------  --------  --------
 0 H  s               0.0      21.1       0.0       0.0       0.0       0.0
 0 H  pz              0.0       0.0       0.0       6.8       0.2       0.0
 0 H  px              0.0      15.0       0.0       0.0       0.0       0.0
 0 H  py              0.0       0.0       0.0       0.2       6.8       0.0
 0 H  dz2            22.7       3.5      10.4       0.0       0.0       0.0
 0 H  dxz             0.0       0.0       0.0       7.3       0.3       0.0
 0 H  dx2y2           7.6      10.4       3.5       0.0       0.0       0.0
 0 H  dxy             0.0       0.0       0.0       0.3       7.3       0.0
 0 H  f0              0.0       0.0       0.0      12.8       0.5      30.9
 0 H  f+1            12.4       0.0      22.6       0.0       0.0       0.0
 0 H  f-1             0.0       0.0       0.0       0.1       2.1       0.5
 0 H  f+2             0.0       0.0       0.0      21.4       0.8      18.6
 0 H  f+3             7.4       0.0      13.6       0.0       0.0       0.0
 0 H  f-3             0.0       0.0       0.0       1.2      32.0       0.0
 1 H  s               0.0      21.1       0.0       0.0       0.0       0.0
 1 H  pz              0.0       0.0       0.0       6.8       0.2       0.0
 1 H  px              0.0      15.0       0.0       0.0       0.0       0.0
 1 H  py              0.0       0.0       0.0       0.2       6.8       0.0
 1 H  dz2            22.7       3.5      10.4       0.0       0.0       0.0
 1 H  dxz             0.0       0.0       0.0       7.3       0.3       0.0
 1 H  dx2y2           7.6      10.4       3.5       0.0       0.0       0.0
 1 H  dxy             0.0       0.0       0.0       0.3       7.3       0.0
 1 H  f0              0.0       0.0       0.0      12.8       0.5      30.9
 1 H  f+1            12.4       0.0      22.6       0.0       0.0       0.0
 1 H  f-1             0.0       0.0       0.0       0.1       2.1       0.5
 1 H  f+2             0.0       0.0       0.0      21.4       0.8      18.6
 1 H  f+3             7.4       0.0      13.6       0.0       0.0       0.0
 1 H  f-3             0.0       0.0       0.0       1.2      32.0       0.0

                     42        43        44        45        46        47   
                   7.11945   7.14601   7.14601   7.55588   7.56901   7.57425
                   0.00000   0.00000   0.00000   0.00000   0.00000   0.00000
                  --------  --------  --------  --------  --------  --------
 0 H  s               0.0       0.0       0.0       2.5       0.0       0.0
 0 H  pz              0.0       0.7       0.1       0.0       0.0       0.0
 0 H  px              0.0       0.0       0.0       4.5       0.0       0.0
 0 H  py              0.0       0.1       0.7       0.0       0.0       0.0
 0 H  dz2             0.0       0.0       0.0       3.7      18.0       0.0
 0 H  dxz             0.0      17.8       2.3       0.0       0.0       0.0
 0 H  dyz             0.0       0.0       0.0       0.0       0.0      24.3
 0 H  dx2y2           0.0       0.0       0.0      11.1       6.0       0.0
 0 H  dxy             0.0       2.3      17.8       0.0       0.0       0.0
 0 H  f0              0.3       9.7       1.2       0.0       0.0       0.0
 0 H  f+1             0.0       0.0       0.0      10.6      16.2       0.0
 0 H  f-1            46.4       0.2       1.6       0.0       0.0       0.0
 0 H  f+2             0.2      16.2       2.1       0.0       0.0       0.0
 0 H  f-2             0.0       0.0       0.0       0.0       0.0      25.7
 0 H  f+3             0.0       0.0       0.0      17.7       9.7       0.0
 0 H  f-3             3.1       3.1      24.3       0.0       0.0       0.0
 1 H  s               0.0       0.0       0.0       2.5       0.0       0.0
 1 H  pz              0.0       0.7       0.1       0.0       0.0       0.0
 1 H  px              0.0       0.0       0.0       4.5       0.0       0.0
 1 H  py              0.0       0.1       0.7       0.0       0.0       0.0
 1 H  dz2             0.0       0.0       0.0       3.7      18.0       0.0
 1 H  dxz             0.0      17.8       2.3       0.0       0.0       0.0
 1 H  dyz             0.0       0.0       0.0       0.0       0.0      24.3
 1 H  dx2y2           0.0       0.0       0.0      11.1       6.0       0.0
 1 H  dxy             0.0       2.3      17.8       0.0       0.0       0.0
 1 H  f0              0.3       9.7       1.2       0.0       0.0       0.0
 1 H  f+1             0.0       0.0       0.0      10.6      16.2       0.0
 1 H  f-1            46.4       0.2       1.6       0.0       0.0       0.0
 1 H  f+2             0.2      16.2       2.1       0.0       0.0       0.0
 1 H  f-2             0.0       0.0       0.0       0.0       0.0      25.7
 1 H  f+3             0.0       0.0       0.0      17.7       9.7       0.0
 1 H  f-3             3.1       3.1      24.3       0.0       0.0       0.0

                     48        49        50        51        52        53   
                   8.04683   8.48423   8.48423   9.93156  10.62305  10.62305
                   0.00000   0.00000   0.00000   0.00000   0.00000   0.00000
                  --------  --------  --------  --------  --------  --------
 0 H  s               1.8       0.0       0.0       0.0       0.0       0.0
 0 H  pz              0.0      47.4       0.1       0.0      16.5       3.6
 0 H  px              3.1       0.0       0.0       0.0       0.0       0.0
 0 H  py              0.0       0.1      47.4       0.0       3.6      16.5
 0 H  dz2             6.4       0.0       0.0       0.0       0.0       0.0
 0 H  dxz             0.0       2.4       0.0       0.0      16.1       3.5
 0 H  dyz             0.0       0.0       0.0      18.4       0.0       0.0
 0 H  dx2y2          19.1       0.0       0.0       0.0       0.0       0.0
 0 H  dxy             0.0       0.0       2.4       0.0       3.5      16.1
 0 H  f0              0.0       0.0       0.0       0.0       3.2       0.7
 0 H  f+1             7.3       0.0       0.0       0.0       0.0       0.0
 0 H  f-1             0.0       0.0       0.0       0.0       0.1       0.5
 0 H  f+2             0.0       0.0       0.0       0.0       5.3       1.1
 0 H  f-2             0.0       0.0       0.0      31.6       0.0       0.0
 0 H  f+3            12.2       0.0       0.0       0.0       0.0       0.0
 0 H  f-3             0.0       0.0       0.0       0.0       1.7       7.9
 1 H  s               1.8       0.0       0.0       0.0       0.0       0.0
 1 H  pz              0.0      47.4       0.1       0.0      16.5       3.6
 1 H  px              3.1       0.0       0.0       0.0       0.0       0.0
 1 H  py              0.0       0.1      47.4       0.0       3.6      16.5
 1 H  dz2             6.4       0.0       0.0       0.0       0.0       0.0
 1 H  dxz             0.0       2.4       0.0       0.0      16.1       3.5
 1 H  dyz             0.0       0.0       0.0      18.4       0.0       0.0
 1 H  dx2y2          19.1       0.0       0.0       0.0       0.0       0.0
 1 H  dxy             0.0       0.0       2.4       0.0       3.5      16.1
 1 H  f0              0.0       0.0       0.0       0.0       3.2       0.7
 1 H  f+1             7.3       0.0       0.0       0.0       0.0       0.0
 1 H  f-1             0.0       0.0       0.0       0.0       0.1       0.5
 1 H  f+2             0.0       0.0       0.0       0.0       5.3       1.1
 1 H  f-2             0.0       0.0       0.0      31.6       0.0       0.0
 1 H  f+3            12.2       0.0       0.0       0.0       0.0       0.0
 1 H  f-3             0.0       0.0       0.0       0.0       1.7       7.9

                     54        55        56        57        58        59   
                  11.37233  11.99280  15.08201  15.08201  15.66579  16.36185
                   0.00000   0.00000   0.00000   0.00000   0.00000   0.00000
                  --------  --------  --------  --------  --------  --------
 0 H  s               0.0      11.2       0.0       0.0      21.7      13.2
 0 H  pz              0.0       0.0      16.9       3.4       0.0       0.0
 0 H  px              0.0      21.0       0.0       0.0      21.9      23.1
 0 H  py              0.0       0.0       3.4      16.9       0.0       0.0
 0 H  dz2            32.6       2.6       0.0       0.0       1.3       2.7
 0 H  dxz             0.0       0.0      24.5       5.0       0.0       0.0
 0 H  dx2y2          10.9       7.9       0.0       0.0       3.9       8.0
 0 H  dxy             0.0       0.0       5.0      24.5       0.0       0.0
 0 H  f+1             4.1       2.7       0.0       0.0       0.5       1.1
 0 H  f+3             2.4       4.5       0.0       0.0       0.8       1.9
 0 H  f-3             0.0       0.0       0.0       0.1       0.0       0.0
 1 H  s               0.0      11.2       0.0       0.0      21.7      13.2
 1 H  pz              0.0       0.0      16.9       3.4       0.0       0.0
 1 H  px              0.0      21.0       0.0       0.0      21.9      23.1
 1 H  py              0.0       0.0       3.4      16.9       0.0       0.0
 1 H  dz2            32.6       2.6       0.0       0.0       1.3       2.7
 1 H  dxz             0.0       0.0      24.5       5.0       0.0       0.0
 1 H  dx2y2          10.9       7.9       0.0       0.0       3.9       8.0
 1 H  dxy             0.0       0.0       5.0      24.5       0.0       0.0
 1 H  f+1             4.1       2.7       0.0       0.0       0.5       1.1
 1 H  f+3             2.4       4.5       0.0       0.0       0.8       1.9
 1 H  f-3             0.0       0.0       0.0       0.1       0.0       0.0


----------------------------
LOEWDIN REDUCED ACTIVE MOs  
----------------------------

                      0         1         2         3         4         5   
                  -0.67423   0.97198   1.05947   1.18977   1.18977   2.95026
                   1.97493   0.00947   0.00675   0.00395   0.00395   0.00015
                  --------  --------  --------  --------  --------  --------
 0 H  s              47.2       9.8      35.6       0.0       0.0       2.9
 0 H  pz              0.0       0.0       0.0      14.4      32.7       0.0
 0 H  px              2.4      35.5      12.3       0.0       0.0      23.3
 0 H  py              0.0       0.0       0.0      32.7      14.4       0.0
 0 H  dz2             0.1       1.0       0.5       0.0       0.0       5.1
 0 H  dx2y2           0.2       3.1       1.4       0.0       0.0      15.3
 1 H  s              47.2       9.8      35.6       0.0       0.0       2.9
 1 H  pz              0.0       0.0       0.0      14.4      32.7       0.0
 1 H  px              2.4      35.5      12.3       0.0       0.0      23.3
 1 H  py              0.0       0.0       0.0      32.7      14.4       0.0
 1 H  dz2             0.1       1.0       0.5       0.0       0.0       5.1
 1 H  dx2y2           0.2       3.1       1.4       0.0       0.0      15.3

                      6         7         8         9        10        11   
                   3.68358   3.32163   3.32163   4.20227   4.28794   4.28794
                   0.00014   0.00011   0.00011   0.00009   0.00008   0.00008
                  --------  --------  --------  --------  --------  --------
 0 H  s              17.9       0.0       0.0      20.7       0.0       0.0
 0 H  pz              0.0       9.0       9.6       0.0       7.0      28.6
 0 H  px             17.3       0.0       0.0      12.8       0.0       0.0
 0 H  py              0.0       9.6       9.0       0.0      28.6       7.0
 0 H  dxz             0.0      12.6      13.6       0.0       2.3       9.4
 0 H  dx2y2           7.5       0.0       0.0      10.0       0.0       0.0
 0 H  dxy             0.0      13.6      12.6       0.0       9.4       2.3
 1 H  s              17.9       0.0       0.0      20.7       0.0       0.0
 1 H  pz              0.0       9.0       9.6       0.0       7.0      28.6
 1 H  px             17.3       0.0       0.0      12.8       0.0       0.0
 1 H  py              0.0       9.6       9.0       0.0      28.6       7.0
 1 H  dxz             0.0      12.6      13.6       0.0       2.3       9.4
 1 H  dx2y2           7.5       0.0       0.0      10.0       0.0       0.0
 1 H  dxy             0.0      13.6      12.6       0.0       9.4       2.3

                     12        13        14        15        16        17   
                   3.34137   3.34194   7.69007   6.09946   1.28411   1.28411
                   0.00008   0.00008   0.00001   0.00001   0.00000   0.00000
                  --------  --------  --------  --------  --------  --------
 0 H  s               0.0       0.0      18.5       0.0       0.0       0.0
 0 H  pz              0.0       0.0       0.0       0.0      14.6      33.7
 0 H  px              0.0       0.0      17.0       0.0       0.0       0.0
 0 H  py              0.0       0.0       0.0       0.0      33.7      14.6
 0 H  dz2            34.3       0.0       2.8       0.0       0.0       0.0
 0 H  dyz             0.0      45.7       0.0      34.2       0.0       0.0
 0 H  dx2y2          11.4       0.0       8.4       0.0       0.0       0.0
 0 H  f-2             0.0       4.3       0.0      15.8       0.0       0.0
 1 H  s               0.0       0.0      18.5       0.0       0.0       0.0
 1 H  pz              0.0       0.0       0.0       0.0      14.6      33.7
 1 H  px              0.0       0.0      17.0       0.0       0.0       0.0
 1 H  py              0.0       0.0       0.0       0.0      33.7      14.6
 1 H  dz2            34.3       0.0       2.8       0.0       0.0       0.0
 1 H  dyz             0.0      45.7       0.0      34.2       0.0       0.0
 1 H  dx2y2          11.4       0.0       8.4       0.0       0.0       0.0
 1 H  f-2             0.0       4.3       0.0      15.8       0.0       0.0

                     18        19        20        21        22        23   
                   1.23054   0.29329   0.82872   1.83314   2.40677   2.55847
                   0.00000   0.00000   0.00000   0.00000   0.00000   0.00000
                  --------  --------  --------  --------  --------  --------
 0 H  s              42.5      49.7      49.0       2.7      17.1       0.0
 0 H  px              2.1       0.2       0.3      45.1      21.2       0.0
 0 H  dz2             1.4       0.0       0.1       0.5       2.3      32.0
 0 H  dx2y2           4.1       0.1       0.4       1.5       7.0      10.7
 1 H  s              42.5      49.7      49.0       2.7      17.1       0.0
 1 H  px              2.1       0.2       0.3      45.1      21.2       0.0
 1 H  dz2             1.4       0.0       0.1       0.5       2.3      32.0
 1 H  dx2y2           4.1       0.1       0.4       1.5       7.0      10.7

------------------------------------------------------------------------------
                           ORCA POPULATION ANALYSIS
------------------------------------------------------------------------------
Input electron density              ... H2_0_1_CASSCF-2-20_def2-qzvpp.sp.scfp
BaseName (.gbw .S,...)              ... H2_0_1_CASSCF-2-20_def2-qzvpp.sp

                    ********************************
                    * MULLIKEN POPULATION ANALYSIS *
                    ********************************

-----------------------
MULLIKEN ATOMIC CHARGES
-----------------------
   0 H :    0.000000
   1 H :   -0.000000
Sum of atomic charges:    0.0000000

--------------------------------
MULLIKEN REDUCED ORBITAL CHARGES
--------------------------------
  0 H s       :     0.982319  s :     0.982319
      pz      :     0.001984  p :     0.017303
      px      :     0.013336
      py      :     0.001984
      dz2     :     0.000055  d :     0.000360
      dxz     :     0.000086
      dyz     :     0.000042
      dx2y2   :     0.000090
      dxy     :     0.000086
      f0      :     0.000001  f :     0.000018
      f+1     :     0.000005
      f-1     :     0.000000
      f+2     :     0.000001
      f-2     :     0.000003
      f+3     :     0.000006
      f-3     :     0.000002
  1 H s       :     0.982319  s :     0.982319
      pz      :     0.001984  p :     0.017303
      px      :     0.013336
      py      :     0.001984
      dz2     :     0.000055  d :     0.000360
      dxz     :     0.000086
      dyz     :     0.000042
      dx2y2   :     0.000090
      dxy     :     0.000086
      f0      :     0.000001  f :     0.000018
      f+1     :     0.000005
      f-1     :     0.000000
      f+2     :     0.000001
      f-2     :     0.000003
      f+3     :     0.000006
      f-3     :     0.000002

------------------------
MULLIKEN OVERLAP CHARGES
------------------------
B(  0-H ,  1-H ) :   0.8979 


                     *******************************
                     * LOEWDIN POPULATION ANALYSIS *
                     *******************************

----------------------
LOEWDIN ATOMIC CHARGES
----------------------
   0 H :   -0.000000
   1 H :    0.000000

-------------------------------
LOEWDIN REDUCED ORBITAL CHARGES
-------------------------------
  0 H s       :     0.935821  s :     0.935821
      pz      :     0.001911  p :     0.056336
      px      :     0.052515
      py      :     0.001911
      dz2     :     0.001719  d :     0.007139
      dxz     :     0.000149
      dyz     :     0.000040
      dx2y2   :     0.005083
      dxy     :     0.000149
      f0      :     0.000005  f :     0.000704
      f+1     :     0.000254
      f-1     :     0.000001
      f+2     :     0.000008
      f-2     :     0.000005
      f+3     :     0.000420
      f-3     :     0.000012
  1 H s       :     0.935821  s :     0.935821
      pz      :     0.001911  p :     0.056336
      px      :     0.052515
      py      :     0.001911
      dz2     :     0.001719  d :     0.007139
      dxz     :     0.000149
      dyz     :     0.000040
      dx2y2   :     0.005083
      dxy     :     0.000149
      f0      :     0.000005  f :     0.000704
      f+1     :     0.000254
      f-1     :     0.000001
      f+2     :     0.000008
      f-2     :     0.000005
      f+3     :     0.000420
      f-3     :     0.000012

---------------------------------
LOEWDIN BOND ORDERS (THRESH 0.050000)
---------------------------------
B(  0-H ,  1-H ) :   0.9749 


                      *****************************
                      * MAYER POPULATION ANALYSIS *
                      *****************************

  NA   - Mulliken gross atomic population
  ZA   - Total nuclear charge
  QA   - Mulliken gross atomic charge
  VA   - Mayer's total valence
  BVA  - Mayer's bonded valence
  FA   - Mayer's free valence

  ATOM       NA         ZA         QA         VA         BVA        FA
  0 H      1.0000     1.0000     0.0000     1.0222     0.9724     0.0497
  1 H      1.0000     1.0000    -0.0000     1.0222     0.9724     0.0497

  Mayer bond orders larger than 0.100000
B(  0-H ,  1-H ) :   0.9724 


-------------------------------------------------------------
 Forming the transition density       ... done in 0.003444 sec
-------------------------------------------------------------



==========================================
CASSCF UV, CD spectra and dipole moments
==========================================
-------------------
ABSORPTION SPECTRUM
-------------------

Center of mass           = (  0.4736,  0.0000,  0.0000)
Nuclear contribution to the dipole moment =     0.000000,    0.000000,    0.000000 au

Calculating the dipole integrals                  ... done
Transforming integrals                            ... done
Calculating the Linear Momentum integrals         ... done
Transforming integrals                            ... done
Calculating the Angular Momentum integrals        ... done
Transforming integrals                            ... done

Ground state mult:    1
Ground state block:   0
Ground state root:    0


------------------------------------------------------------------------------
                                 DIPOLE MOMENTS
------------------------------------------------------------------------------
  Root  Block           TX        TY        TZ           |T|
                      (Debye)   (Debye)   (Debye)      (Debye)
------------------------------------------------------------------------------
    0    0            0.00000  -0.00000  -0.00000      0.00000

--------------
CASSCF TIMINGS
--------------

Total time                       ...        5.3 sec
Sum of individual times          ...        5.1 sec ( 94.9%)

Calculation of AO operators
   F(Core) operator              ...        0.1 sec (  1.0%)
   G(Act) operator               ...        0.9 sec ( 16.7%)
   J(AO) operators               ...        0.0 sec (  0.0%)
Calculation of MO transformed quantities
   J(MO) operators               ...        2.5 sec ( 46.9%)
   (pq|rs) integrals             ...        0.0 sec (  0.0%)
   AO->MO one electron integrals ...        0.0 sec (  0.3%)
Configuration interaction steps
   CI-setup phase                ...        0.0 sec (  0.0%)
   CI-solution phase             ...        0.7 sec ( 13.5%)
   Generation of densities       ...        0.5 sec ( 10.2%)
Orbital improvement steps
   Orbital gradient              ...        0.3 sec (  6.0%)
   O(1) converger                ...        0.0 sec (  0.1%)
Properties                       ...        0.0 sec (  0.2%)
   SOC integral calculation      ...        0.0 sec (  0.0%)
   SSC RMEs (incl. integrals)    ...        0.0 sec (  0.0%)
   SOC RMEs                      ...        0.0 sec (  0.0%)

-------------------------   --------------------
FINAL SINGLE POINT ENERGY        -1.103576181202
-------------------------   --------------------

Storing actual gbw-file in H2_0_1_CASSCF-2-20_def2-qzvpp.sp.001.gbw ... done

                            ***************************************
                            *     ORCA property calculations      *
                            ***************************************

                                    ---------------------
                                    Active property flags
                                    ---------------------
   (+) Dipole Moment


------------------------------------------------------------------------------
                       ORCA ELECTRIC PROPERTIES CALCULATION
------------------------------------------------------------------------------

Dipole Moment Calculation                       ... on
Quadrupole Moment Calculation                   ... off
Polarizability Calculation                      ... off
GBWName                                         ... H2_0_1_CASSCF-2-20_def2-qzvpp.sp.gbw
Electron density file                           ... H2_0_1_CASSCF-2-20_def2-qzvpp.sp.scfp
The origin for moment calculation is the CENTER OF MASS  = ( 0.473553,  0.000000  0.000000)

-------------
DIPOLE MOMENT
-------------
                                X             Y             Z
Electronic contribution:      0.00000      -0.00000      -0.00000
Nuclear contribution   :      0.00000       0.00000       0.00000
                        -----------------------------------------
Total Dipole Moment    :      0.00000      -0.00000      -0.00000
                        -----------------------------------------
Magnitude (a.u.)       :      0.00000
Magnitude (Debye)      :      0.00000



--------------------
Rotational spectrum 
--------------------
 
Rotational constants in cm-1:     0.000000   133.157724   133.157724 
Rotational constants in MHz :     0.000000 3991968.149099 3991968.149099 

 Dipole components along the rotational axes: 
x,y,z [a.u.] :     0.000000    -0.000000    -0.000000 
x,y,z [Debye]:     0.000000    -0.000000    -0.000000 

 

         *************************************************************
                                TRAJECTORY STEP   2
                RHH  :   0.60842987
         *************************************************************
---------------------------------
CARTESIAN COORDINATES (ANGSTROEM)
---------------------------------
  H      0.000000    0.000000    0.000000
  H      0.608430    0.000000    0.000000

----------------------------
CARTESIAN COORDINATES (A.U.)
----------------------------
  NO LB      ZA    FRAG     MASS         X           Y           Z
   0 H     1.0000    0     1.008    0.000000    0.000000    0.000000
   1 H     1.0000    0     1.008    1.149766    0.000000    0.000000

--------------------------------
INTERNAL COORDINATES (ANGSTROEM)
--------------------------------
 H      0   0   0     0.000000000000     0.00000000     0.00000000
 H      1   0   0     0.608429869077     0.00000000     0.00000000

---------------------------
INTERNAL COORDINATES (A.U.)
---------------------------
 H      0   0   0     0.000000000000     0.00000000     0.00000000
 H      1   0   0     1.149765824252     0.00000000     0.00000000


Diagonalization of the overlap matrix:
Smallest eigenvalue                        ... 8.441e-05
Time for diagonalization                   ...    0.002 sec
Threshold for overlap eigenvalues          ... 1.000e-08
Number of eigenvalues below threshold      ... 0
Time for construction of square roots      ...    0.002 sec
Total time needed                          ...    0.003 sec



 ... the calculation is a CASSCF calculation -I'm leaving here GOOD LUCK!!!

-------------------------------------------------------------------------------
                              ORCA-CASSCF
-------------------------------------------------------------------------------

Setting up the integral package       ... done
Building the CAS space                ... done (210 configurations for Mult=1)
----------------
GENERAL CI SETUP
----------------

Checking configurations                         ... done
Determining NSOMO,NDOMO and NVMO                ... done
Building up the tree                            ... done
Building N-1 electron tree                      ... done
Building RI configuration space                 ... done
Analyzing the RI configuration space            ... done
Determining NDOMO,NSOMO,NVMO for RI space       ... done
Determination of address arrays                 ... done
Looking for max. no of open shells              ... done
Setting up coupling coefficient container       ... Memory for address arrays  		      ... done
Make address arrays			      ... done
Memory for buffers 			      ... done
Setting up spin-function prototypes	      ... (MAXOPEN=2) 0 2 4 done
Trivial cases - DOMO's			      ... done (  0.0 MB)
Number of open shells			    ...  0
domo->virtual excitations			... done (  0.0 MB)
domo->somo excitations				... done (  0.0 MB)
somo->virtual excitations			... done (  0.0 MB)
somo->somo excitations				... done (  0.0 MB)
Number of open shells			    ...  2
domo->virtual excitations			... done (  0.0 MB)
domo->somo excitations				... done (  0.0 MB)
somo->virtual excitations			... done (  0.0 MB)
somo->somo excitations				... done (  0.0 MB)
Coupling container construction done
done
Now recording sub-block dimensions              ... done
Memory used for TGeneralCI arrays =     0.1 MB
  Original space  =     0.0
  RI       space  =     0.0
  Address arrays  =     0.0
  Coupling coeffs =     0.0
Multiplicity                          ...       1
# of electrons                        ...       2
# of orbitals                         ...      20
# of roots requested                  ...       1
Configuration space:
# of configurations                   ...     210
# of CSF's                            ...     210
# of rejected configurations          ...       0
Min. # of SOMOs                       ...       0
Max. # of SOMOs                       ...       2
Max. # of DOMOs                       ...       1
Max. # of VMOs                        ...      19
RI Configuration space:
# of configurations                   ...     210
# of CSF's                            ...     210
# of rejected configurations          ...       0
Min. # of SOMOs                       ...       0
Max. # of SOMOs                       ...       2
Max. # of DOMOs                       ...       1
Max. # of VMOs                        ...      19
(N-1) Electron Configuration space:
# of configurations                   ...      20
CSF dimensions:
      0 SOMOs give     1 CSFs
      2 SOMOs give     1 CSFs


SYSTEM-SPECIFIC SETTINGS:
Number of active electrons          ...    2
Number of active orbitals           ...   20
Total number of electrons           ...    2
Total number of orbitals            ...   60

Determined orbital ranges:
   Internal       0 -   -1 (   0 orbitals)
   Active         0 -   19 (  20 orbitals)
   External      20 -   59 (  40 orbitals)
Number of rotation parameters      ...    800

CI-STEP:
CI strategy                         ... General CI
Number of multiplicity blocks       ...    1
BLOCK  1 WEIGHT=   1.0000
  Multiplicity                      ...    1
  #(Configurations)                 ...  210
  #(CSFs)                           ...  210
  #(Roots)                          ...    1
    ROOT=0 WEIGHT=    1.000000

  PrintLevel                        ...    1
  N(GuessMat)                       ...       512
  MaxDim(CI)                        ...        10
  MaxIter(CI)                       ...        64
  Energy Tolerance CI               ...  2.50e-09
  Residual Tolerance CI             ...  2.50e-09
  Shift(CI)                         ...  1.00e-04

INTEGRAL-TRANSFORMATION-STEP:
  Algorithm                         ... EXACT

ORBITAL-IMPROVEMENT-STEP:
  Algorithm                         ... SuperCI(PT)
  Default Parametrization           ... CAYLEY
  Act-Act rotations                 ... depends on algorithm used

  Note: SuperCI(PT) will ignore FreezeIE, FreezeAct and FreezeGrad. In general Default settings are encouraged.
        In conjunction with ShiftUp, ShiftDn or GradScaling the performance of SuperCI(PT) is less optimal.  

  MaxRot                            ... 2.00e-01 
  Max. no of vectors (DIIS)         ... 15
  DThresh (cut-off) metric          ... 1.00e-06
  Switch step at gradient           ...  3.00e-02 
[...]
      6       0.000000   0.000000  -0.000000  -0.000000   0.000000  -0.000000
      7       0.000000   0.000000   0.000000  -0.000000  -0.000000   0.000000
      8      -0.000000   0.000000  -0.000000  -0.000000   0.000000   0.000000
      9       0.000000   0.000000   0.000000  -0.000000   0.000000  -0.000000
     10       0.000000   0.000000  -0.000000  -0.000000  -0.000000   0.000000
     11      -0.000000   0.000000  -0.000000  -0.000000   0.000000   0.000000
     12      -0.000000   0.000000  -0.000000  -0.000000  -0.000000  -0.000000
     13       0.000000   0.000000   0.000000   0.000000  -0.000000   0.000000
     14      -0.000000   0.000000   0.000000  -0.000000   0.000000  -0.000000
     15      -0.000000   0.000000   0.000000  -0.000000   0.000000   0.000000
     16      -0.000000   0.000000   0.000000   0.000000  -0.000000  -0.000000
     17      -0.000000  -0.000000  -0.000000   0.000000  -0.000000   0.000000
     18       0.000000   0.000000   0.000000  -0.000000   0.000000   0.000000
     19       0.000000  -0.000000  -0.000000  -0.000000   0.000000   0.000000
                  6          7          8          9         10         11    
      0       0.000000   0.000000  -0.000000   0.000000   0.000000  -0.000000
      1       0.000000   0.000000   0.000000   0.000000   0.000000   0.000000
      2      -0.000000   0.000000  -0.000000   0.000000  -0.000000  -0.000000
      3      -0.000000  -0.000000  -0.000000  -0.000000  -0.000000  -0.000000
      4       0.000000  -0.000000   0.000000   0.000000  -0.000000   0.000000
      5      -0.000000   0.000000   0.000000  -0.000000   0.000000   0.000000
      6       0.000000   0.000000   0.000000   0.000000   0.000000  -0.000000
      7       0.000000   0.000000  -0.000000  -0.000000  -0.000000   0.000000
      8       0.000000  -0.000000   0.000000  -0.000000  -0.000000  -0.000000
      9       0.000000  -0.000000  -0.000000   0.000000  -0.000000   0.000000
     10       0.000000  -0.000000  -0.000000  -0.000000   0.000000  -0.000000
     11      -0.000000   0.000000  -0.000000   0.000000  -0.000000   0.000000
     12      -0.000000   0.000000   0.000000   0.000000   0.000000  -0.000000
     13       0.000000   0.000000   0.000000   0.000000  -0.000000   0.000000
     14       0.000000   0.000000   0.000000  -0.000000   0.000000  -0.000000
     15      -0.000000   0.000000   0.000000  -0.000000   0.000000   0.000000
     16      -0.000000   0.000000   0.000000  -0.000000  -0.000000  -0.000000
     17      -0.000000   0.000000   0.000000   0.000000   0.000000  -0.000000
     18      -0.000000   0.000000   0.000000  -0.000000   0.000000   0.000000
     19      -0.000000  -0.000000  -0.000000   0.000000  -0.000000   0.000000
                 12         13         14         15         16         17    
      0      -0.000000   0.000000  -0.000000  -0.000000  -0.000000  -0.000000
      1       0.000000   0.000000   0.000000   0.000000   0.000000  -0.000000
      2      -0.000000   0.000000   0.000000   0.000000   0.000000  -0.000000
      3      -0.000000   0.000000  -0.000000  -0.000000   0.000000   0.000000
      4      -0.000000  -0.000000   0.000000   0.000000  -0.000000  -0.000000
      5      -0.000000   0.000000  -0.000000   0.000000  -0.000000   0.000000
      6      -0.000000   0.000000   0.000000  -0.000000  -0.000000  -0.000000
      7       0.000000   0.000000   0.000000   0.000000   0.000000   0.000000
      8       0.000000   0.000000   0.000000   0.000000   0.000000   0.000000
      9       0.000000   0.000000  -0.000000  -0.000000  -0.000000   0.000000
     10       0.000000  -0.000000   0.000000   0.000000  -0.000000   0.000000
     11      -0.000000   0.000000  -0.000000   0.000000  -0.000000  -0.000000
     12       0.000000   0.000000  -0.000000   0.000000  -0.000000   0.000000
     13       0.000000   0.000000  -0.000000  -0.000000   0.000000   0.000000
     14      -0.000000  -0.000000   0.000000   0.000000   0.000000  -0.000000
     15       0.000000  -0.000000   0.000000   0.000000  -0.000000  -0.000000
     16      -0.000000   0.000000   0.000000  -0.000000   0.000000   0.000000
     17       0.000000   0.000000  -0.000000  -0.000000   0.000000   0.000000
     18      -0.000000   0.000000  -0.000000  -0.000000   0.000000   0.000000
     19       0.000000   0.000000  -0.000000   0.000000  -0.000000   0.000000
                  18         19    
      0       0.000000   0.000000
      1       0.000000  -0.000000
      2       0.000000  -0.000000
      3      -0.000000  -0.000000
      4       0.000000   0.000000
      5       0.000000   0.000000
      6      -0.000000  -0.000000
      7       0.000000  -0.000000
      8       0.000000  -0.000000
      9      -0.000000   0.000000
     10       0.000000  -0.000000
     11       0.000000   0.000000
     12      -0.000000   0.000000
     13       0.000000   0.000000
     14      -0.000000  -0.000000
     15      -0.000000   0.000000
     16       0.000000  -0.000000
     17       0.000000   0.000000
     18       0.000000   0.000000
     19       0.000000   0.000000
Trace of the electron density:  2.000000

-----------------
ENERGY COMPONENTS
-----------------

One electron energy          :     -1.053009935 Eh         -28.6539 eV
Two electron energy          :      0.026521663 Eh           0.7217 eV
Nuclear repulsion energy     :      0.026521686 Eh           0.7217 eV
                               ----------------
                                   -0.999966586

Kinetic energy               :      1.000009351 Eh          27.2116 eV
Potential energy             :     -1.999975937 Eh         -54.4221 eV
Virial ratio                 :     -1.999957235 
                               ----------------
                                   -0.999966586

Core energy                  :      0.026521686 Eh        0.7217 eV


----------------------------
LOEWDIN REDUCED ACTIVE MOs  
----------------------------

                      0         1         2         3         4         5   
                  -0.18748  -0.18746   0.57657   0.57561   0.57801   0.57801
                   1.00004   0.99996   0.00000   0.00000   0.00000   0.00000
                  --------  --------  --------  --------  --------  --------
 0 H  s              50.0      50.0       0.5       0.1       0.0       0.0
 0 H  pz              0.0       0.0       0.0       0.0      37.6      12.3
 0 H  px              0.0       0.0      49.3      49.8       0.0       0.0
 0 H  py              0.0       0.0       0.0       0.0      12.3      37.6
 1 H  s              50.0      50.0       0.5       0.1       0.0       0.0
 1 H  pz              0.0       0.0       0.0       0.0      37.6      12.3
 1 H  px              0.0       0.0      49.3      49.8       0.0       0.0
 1 H  py              0.0       0.0       0.0       0.0      12.3      37.6

                      6         7         8         9        10        11   
                   0.88795   0.88795   1.17677   0.84099   2.29697   2.29827
                   0.00000   0.00000   0.00000   0.00000   0.00000   0.00000
                  --------  --------  --------  --------  --------  --------
 0 H  s               0.0       0.0      47.0      48.0       0.0       0.0
 0 H  pz              0.1      49.4       0.0       0.0       0.0       0.0
 0 H  py             49.4       0.1       0.0       0.0       0.0       0.0
 0 H  dz2             0.0       0.0       0.7       0.4      36.1       0.0
 0 H  dyz             0.0       0.0       0.0       0.0       0.0      48.1
 0 H  dx2y2           0.0       0.0       2.0       1.3      12.0       0.0
 1 H  s               0.0       0.0      47.0      48.0       0.0       0.0
 1 H  pz              0.1      49.4       0.0       0.0       0.0       0.0
 1 H  py             49.4       0.1       0.0       0.0       0.0       0.0
 1 H  dz2             0.0       0.0       0.7       0.4      36.1       0.0
 1 H  dyz             0.0       0.0       0.0       0.0       0.0      48.1
 1 H  dx2y2           0.0       0.0       2.0       1.3      12.0       0.0

                     12        13        14        15        16        17   
                   2.46366   2.28967   2.39345   2.39345   2.70628   2.21335
                   0.00000   0.00000   0.00000   0.00000   0.00000   0.00000
                  --------  --------  --------  --------  --------  --------
 0 H  s               0.0       2.7       0.0       0.0       2.3      14.0
 0 H  px              0.0       6.4       0.0       0.0      12.6      32.6
 0 H  dz2             0.0       9.6       0.0       0.0       8.2       0.8
 0 H  dxz             0.0       0.0      21.5      19.4       0.0       0.0
 0 H  dyz            48.1       0.0       0.0       0.0       0.0       0.0
 0 H  dx2y2           0.0      28.8       0.0       0.0      24.5       2.5
 0 H  dxy             0.0       0.0      19.4      21.5       0.0       0.0
 1 H  s               0.0       2.7       0.0       0.0       2.3      14.0
 1 H  px              0.0       6.4       0.0       0.0      12.6      32.6
 1 H  dz2             0.0       9.6       0.0       0.0       8.2       0.8
 1 H  dxz             0.0       0.0      21.5      19.4       0.0       0.0
 1 H  dyz            48.1       0.0       0.0       0.0       0.0       0.0
 1 H  dx2y2           0.0      28.8       0.0       0.0      24.5       2.5
 1 H  dxy             0.0       0.0      19.4      21.5       0.0       0.0

                     18        19        20        21        22        23   
                   2.70743   2.70743   0.56525   1.27802   2.07638   2.07638
                   0.00000   0.00000   0.00000   0.00000   0.00000   0.00000
                  --------  --------  --------  --------  --------  --------
 0 H  s               0.0       0.0      49.3      35.8       0.0       0.0
 0 H  pz              7.8       1.9       0.0       0.0       8.0      32.0
 0 H  px              0.0       0.0       0.5      11.2       0.0       0.0
 0 H  py              1.9       7.8       0.0       0.0      32.0       8.0
 0 H  dxz            30.4       7.3       0.0       0.0       2.0       8.0
 0 H  dxy             7.3      30.4       0.0       0.0       8.0       2.0
 1 H  s               0.0       0.0      49.3      35.8       0.0       0.0
 1 H  pz              7.8       1.9       0.0       0.0       8.0      32.0
 1 H  px              0.0       0.0       0.5      11.2       0.0       0.0
 1 H  py              1.9       7.8       0.0       0.0      32.0       8.0
 1 H  dxz            30.4       7.3       0.0       0.0       2.0       8.0
 1 H  dxy             7.3      30.4       0.0       0.0       8.0       2.0


-------------------------------------------------------------
 Forming the transition density       ... done in 0.002300 sec
-------------------------------------------------------------



==========================================
CASSCF UV, CD spectra and dipole moments
==========================================
-------------------
ABSORPTION SPECTRUM
-------------------

Center of mass           = ( 18.8525,  0.0000,  0.0000)
Nuclear contribution to the dipole moment =     0.000000,    0.000000,    0.000000 au

Calculating the dipole integrals                  ... done
Transforming integrals                            ... done
Calculating the Linear Momentum integrals         ... done
Transforming integrals                            ... done
Calculating the Angular Momentum integrals        ... done
Transforming integrals                            ... done

Ground state mult:    1
Ground state block:   0
Ground state root:    0


------------------------------------------------------------------------------
                                 DIPOLE MOMENTS
------------------------------------------------------------------------------
  Root  Block           TX        TY        TZ           |T|
                      (Debye)   (Debye)   (Debye)      (Debye)
------------------------------------------------------------------------------
    0    0            0.00000   0.00000  -0.00000      0.00000

--------------
CASSCF TIMINGS
--------------

Total time                       ...        0.8 sec
Sum of individual times          ...        0.6 sec ( 82.5%)

Calculation of AO operators
   F(Core) operator              ...        0.0 sec (  0.7%)
   G(Act) operator               ...        0.0 sec (  3.5%)
   J(AO) operators               ...        0.0 sec (  0.0%)
Calculation of MO transformed quantities
   J(MO) operators               ...        0.2 sec ( 30.5%)
   (pq|rs) integrals             ...        0.0 sec (  0.0%)
   AO->MO one electron integrals ...        0.0 sec (  0.0%)
Configuration interaction steps
   CI-setup phase                ...        0.0 sec (  0.2%)
   CI-solution phase             ...        0.2 sec ( 19.5%)
   Generation of densities       ...        0.1 sec ( 18.9%)
Orbital improvement steps
   Orbital gradient              ...        0.1 sec (  8.1%)
Properties                       ...        0.0 sec (  0.9%)
   SOC integral calculation      ...        0.0 sec (  0.0%)
   SSC RMEs (incl. integrals)    ...        0.0 sec (  0.0%)
   SOC RMEs                      ...        0.0 sec (  0.0%)

-------------------------   --------------------
FINAL SINGLE POINT ENERGY        -0.999966585772
-------------------------   --------------------

Storing actual gbw-file in H2_0_1_CASSCF-2-20_def2-qzvpp.sp.020.gbw ... done

                            ***************************************
                            *     ORCA property calculations      *
                            ***************************************

                                    ---------------------
                                    Active property flags
                                    ---------------------
   (+) Dipole Moment


------------------------------------------------------------------------------
                       ORCA ELECTRIC PROPERTIES CALCULATION
------------------------------------------------------------------------------

Dipole Moment Calculation                       ... on
Quadrupole Moment Calculation                   ... off
Polarizability Calculation                      ... off
GBWName                                         ... H2_0_1_CASSCF-2-20_def2-qzvpp.sp.gbw
Electron density file                           ... H2_0_1_CASSCF-2-20_def2-qzvpp.sp.scfp
The origin for moment calculation is the CENTER OF MASS  = (18.852497,  0.000000  0.000000)

-------------
DIPOLE MOMENT
-------------
                                X             Y             Z
Electronic contribution:      0.00000       0.00000      -0.00000
Nuclear contribution   :     -0.00000       0.00000       0.00000
                        -----------------------------------------
Total Dipole Moment    :      0.00000       0.00000      -0.00000
                        -----------------------------------------
Magnitude (a.u.)       :      0.00000
Magnitude (Debye)      :      0.00000



--------------------
Rotational spectrum 
--------------------
 
Rotational constants in cm-1:     0.000000     0.084017     0.084017 
Rotational constants in MHz :     0.000000  2518.761623  2518.761623 

 Dipole components along the rotational axes: 
x,y,z [a.u.] :     0.000000     0.000000    -0.000000 
x,y,z [Debye]:     0.000000     0.000000    -0.000000 

 
                              **** TRAJECTORY DONE ***

                         SUMMARY OF THE CALCULATED SURFACE

------------------
TRAJECTORY RESULTS
------------------

Column   1: RHH

The Calculated Surface using the 'Actual Energy'
   0.50118723  -1.10357618
   0.60842987  -1.15724631
   0.73861998  -1.17324878
   0.89666781  -1.16172068
   1.08853427  -1.13199961
   1.32145577  -1.09321871
   1.60421716  -1.05448754
   1.94748304  -1.02451146
   2.36419999  -1.00789566
   2.87008485  -1.00174279
   3.48421754  -1.00024370
   4.22976062  -1.00000072
   5.13483291  -0.99997187
   6.23357002  -0.99996792
   7.56741181  -0.99996698
   9.18666532  -0.99996670
  11.15240214  -0.99996662
  13.53876180  -0.99996660
  16.43574799  -0.99996659
  19.95262315  -0.99996659

                        *******************************
                        *   FIT OF THE ACT-ENERGY PES *
                        *******************************
-------------------------------
POTENTIAL ENERGY SURFACE =   0
-------------------------------

Minimum found after 27 iterations
Equilibrium distance and its energy from the interpolated PES:
  Re      =   0.72589 Angstroem  (  1.37173 Bohr)
  E(Re)   =    -1.173339 Eh 
  dE/dR   = 3.511e-09 (-1.145e-01 CHEB)
  d2E/dR2 =    0.345707 (   0.798192 CHEB) (  -0.013050 NUM)
  d3E/dR3 =   -4.157223 (  -3.007446 CHEB)

Spectroscopic constants:
  we =    4274.4 cm**-1 (based on SPLINE)
  we =    6494.9 cm**-1 (based on CHEB)
  we =      -nan cm**-1 (based on NUM)

Performing Morse fit ...
Morse-Fit Results:
 Te(adiabatic)   =    -358.2 cm**-1         = -0.044 eV
 d2E/dR**2 (Morse)=      0.410521139 
 d3E/dR**3 (Morse)=     -1.330798808 
 d4E/dR**4 (Morse)=      3.355403954 
 E0               =     -1.174971321 Eh  RMS=1.57e-06
 Re               =   0.74334 Angstroem      =  1.40470 Bohr RMS=8.50e-06)
 De(Morse)        =   4.78349 eV             =  38581.5 cm**-1 RMS=1.77e-06
 D0(Morse)        =   4.49474 eV
 beta             =   1.08058 au          RMS=1.33e-05
 we               =   4657.9 cm**-1
 wexe             =    140.5 cm**-1
 Displacement   =    0.0174 Angstroem      =  0.03297 Bohr

The Calculated Surface using the SCF energy
   0.50118723  -1.10357618
   0.60842987  -1.15724631
   0.73861998  -1.17324878
   0.89666781  -1.16172068
   1.08853427  -1.13199961
   1.32145577  -1.09321871
   1.60421716  -1.05448754
   1.94748304  -1.02451146
   2.36419999  -1.00789566
   2.87008485  -1.00174279
   3.48421754  -1.00024370
   4.22976062  -1.00000072
   5.13483291  -0.99997187
   6.23357002  -0.99996792
   7.56741181  -0.99996698
   9.18666532  -0.99996670
  11.15240214  -0.99996662
  13.53876180  -0.99996660
  16.43574799  -0.99996659
  19.95262315  -0.99996659

                        *******************************
                        *       FIT OF THE SCF PES    *
                        *******************************
-------------------------------
POTENTIAL ENERGY SURFACE =   0
-------------------------------

Minimum found after 27 iterations
Equilibrium distance and its energy from the interpolated PES:
  Re      =   0.72589 Angstroem  (  1.37173 Bohr)
  E(Re)   =    -1.173339 Eh 
  dE/dR   = 3.511e-09 (-1.145e-01 CHEB)
  d2E/dR2 =    0.345707 (   0.798192 CHEB) (  -0.013050 NUM)
  d3E/dR3 =   -4.157223 (  -3.007446 CHEB)

Spectroscopic constants:
  we =    4274.4 cm**-1 (based on SPLINE)
  we =    6494.9 cm**-1 (based on CHEB)
  we =      -nan cm**-1 (based on NUM)

Performing Morse fit ...
Morse-Fit Results:
 Te(adiabatic)   =    -358.2 cm**-1         = -0.044 eV
 d2E/dR**2 (Morse)=      0.410521139 
 d3E/dR**3 (Morse)=     -1.330798808 
 d4E/dR**4 (Morse)=      3.355403954 
 E0               =     -1.174971321 Eh  RMS=1.57e-06
 Re               =   0.74334 Angstroem      =  1.40470 Bohr RMS=8.50e-06)
 De(Morse)        =   4.78349 eV             =  38581.5 cm**-1 RMS=1.77e-06
 D0(Morse)        =   4.49474 eV
 beta             =   1.08058 au          RMS=1.33e-05
 we               =   4657.9 cm**-1
 wexe             =    140.5 cm**-1
 Displacement   =    0.0174 Angstroem      =  0.03297 Bohr


Timings for individual modules:

Sum of individual times         ...      118.541 sec (=   1.976 min)
GTO integral calculation        ...        5.055 sec (=   0.084 min)   4.3 %
SCF iterations                  ...        0.990 sec (=   0.016 min)   0.8 %
CASSCF iterations               ...      112.496 sec (=   1.875 min)  94.9 %
                             ****ORCA TERMINATED NORMALLY****
TOTAL RUN TIME: 0 days 0 hours 2 minutes 0 seconds 804 msec
