
                                 *****************
                                 * O   R   C   A *
                                 *****************

           --- An Ab Initio, DFT and Semiempirical electronic structure package ---

                  #######################################################
                  #                        -***-                        #
                  #          Department of theory and spectroscopy      #
                  #               Directorship: Frank Neese             #
                  #        Max Planck Institute fuer Kohlenforschung    #
                  #                Kaiser Wilhelm Platz 1               #
                  #                 D-45470 Muelheim/Ruhr               #
                  #                      Germany                        #
                  #                                                     #
                  #                  All rights reserved                #
                  #                        -***-                        #
                  #######################################################


                         Program Version 4.2.0 -  RELEASE  -


 With contributions from (in alphabetic order):
   Daniel Aravena         : Magnetic Suceptibility
   Michael Atanasov       : Ab Initio Ligand Field Theory (pilot matlab implementation)
   Alexander A. Auer      : GIAO ZORA, VPT2
   Ute Becker             : Parallelization
   Giovanni Bistoni       : ED, misc. LED, open-shell LED, HFLED
   Martin Brehm           : Molecular dynamics
   Dmytro Bykov           : SCF Hessian
   Vijay G. Chilkuri      : MRCI spin determinant printing, contributions to CSF-ICE
   Dipayan Datta          : RHF DLPNO-CCSD density
   Achintya Kumar Dutta   : EOM-CC, STEOM-CC
   Dmitry Ganyushin       : Spin-Orbit,Spin-Spin,Magnetic field MRCI
   Miquel Garcia          : C-PCM Hessian, Gaussian charge scheme
   Yang Guo               : DLPNO-NEVPT2, CIM, IAO-localization
   Andreas Hansen         : Spin unrestricted coupled pair/coupled cluster methods
   Benjamin Helmich-Paris : CASSCF linear response (MC-RPA)
   Lee Huntington         : MR-EOM, pCC
   Robert Izsak           : Overlap fitted RIJCOSX, COSX-SCS-MP3, EOM
   Christian Kollmar      : KDIIS, OOCD, Brueckner-CCSD(T), CCSD density
   Simone Kossmann        : Meta GGA functionals, TD-DFT gradient, OOMP2, MP2 Hessian
   Martin Krupicka        : AUTO-CI
   Lucas Lang             : DCDCAS
   Dagmar Lenk            : GEPOL surface, SMD
   Dimitrios Liakos       : Extrapolation schemes; Compound Job, initial MDCI parallelization
   Dimitrios Manganas     : Further ROCIS development; embedding schemes
   Dimitrios Pantazis     : SARC Basis sets
   Taras Petrenko         : DFT Hessian,TD-DFT gradient, ASA, ECA, R-Raman, ABS, FL, XAS/XES, NRVS
   Peter Pinski           : DLPNO-MP2, DLPNO-MP2 Gradient
   Christoph Reimann      : Effective Core Potentials
   Marius Retegan         : Local ZFS, SOC
   Christoph Riplinger    : Optimizer, TS searches, QM/MM, DLPNO-CCSD(T), (RO)-DLPNO pert. Triples
   Tobias Risthaus        : Range-separated hybrids, TD-DFT gradient, RPA, STAB
   Michael Roemelt        : Original ROCIS implementation
   Masaaki Saitow         : Open-shell DLPNO-CCSD energy and density
   Barbara Sandhoefer     : DKH picture change effects
   Avijit Sen             : IP-ROCIS
   Kantharuban Sivalingam : CASSCF convergence, NEVPT2, FIC-MRCI
   Bernardo de Souza      : ESD, SOC TD-DFT
   Georgi Stoychev        : AutoAux, RI-MP2 NMR
   Willem Van den Heuvel  : Paramagnetic NMR
   Boris Wezisla          : Elementary symmetry handling
   Frank Wennmohs         : Technical directorship


 We gratefully acknowledge several colleagues who have allowed us to
 interface, adapt or use parts of their codes:
   Stefan Grimme, W. Hujo, H. Kruse,             : VdW corrections, initial TS optimization,
                  C. Bannwarth                     DFT functionals, gCP, sTDA/sTD-DF
   Ed Valeev, F. Pavosevic, A. Kumar             : LibInt (2-el integral package), F12 methods
   Garnet Chan, S. Sharma, J. Yang, R. Olivares  : DMRG
   Ulf Ekstrom                                   : XCFun DFT Library
   Mihaly Kallay                                 : mrcc  (arbitrary order and MRCC methods)
   Andreas Klamt, Michael Diedenhofen            : otool_cosmo (COSMO solvation model)
   Jiri Pittner, Ondrej Demel                    : Mk-CCSD
   Frank Weinhold                                : gennbo (NPA and NBO analysis)
   Christopher J. Cramer and Donald G. Truhlar   : smd solvation model
   Lars Goerigk                                  : TD-DFT with DH, B97 family of functionals
   V. Asgeirsson, H. Jonsson                     : NEB implementation
   FAccTs GmbH                                   : IRC, NEB, NEB-TS, Multilevel, MM, QM/MM, CI optimization
   S Lehtola, MJT Oliveira, MAL Marques          : LibXC Library


 Your calculation uses the libint2 library for the computation of 2-el integrals
 For citations please refer to: http://libint.valeyev.net

 Your ORCA version has been built with support for libXC version: 4.2.3
 For citations please refer to: https://tddft.org/programs/libxc/

 This ORCA versions uses:
   CBLAS   interface :  Fast vector & matrix operations
   LAPACKE interface :  Fast linear algebra routines
   SCALAPACK package :  Parallel linear algebra routines


----- Orbital basis set information -----
Your calculation utilizes the basis: def2-QZVPP
   F. Weigend and R. Ahlrichs, Phys. Chem. Chem. Phys. 7, 3297 (2005).

================================================================================
                                        WARNINGS
                       Please study these warnings very carefully!
================================================================================


INFO   : the flag for use of LIBINT has been found!

================================================================================
                                       INPUT FILE
================================================================================
NAME = H2_0_1_CASSCF-2-14_def2-qzvpp.sp.inp
|  1> !rhf def2-qzvpp tightscf 
|  2> !normalprint
|  3> 
|  4> %paras
|  5> #  rHH [19.952623149688797 16.43574799372698 13.538761800225439 11.152402139117903 9.1866653175426 7.567411809920191 6.233570019315557 5.134832907437553 4.229760619613384 3.4842175435383975 2.870084854071569 2.3641999865500756 1.9474830399087562 1.6042171611153242 1.32145576997553 1.088534267260644 0.8966678097917788 0.7386199822079362 0.6084298690766428 0.5011872336272722]
|  6>   rHH [0.5011872336272722 0.6084298690766428 0.7386199822079362 0.8966678097917788 1.088534267260644 1.32145576997553 1.6042171611153242 1.9474830399087562 2.3641999865500756 2.870084854071569 3.4842175435383975 4.229760619613384 5.134832907437553 6.233570019315557 7.567411809920191 9.1866653175426 11.152402139117903 13.538761800225439 16.43574799372698 19.952623149688797]
|  7> end
|  8> 
|  9> %scf
| 10>   maxiter 500
| 11> end
| 12> 
| 13> %casscf
| 14>   nel 2
| 15>   norb 14
| 16> end
| 17> 
| 18> *int 0 1
| 19> H 0 0 0 0 0 0
| 20> H 1 0 0 {rHH} 0 0
| 21> *
| 22> 
| 23>                          ****END OF INPUT****
================================================================================

                       ******************************
                       * Parameter Scan Calculation *
                       ******************************

Trajectory settings:
    -> SCF surface will be mapped

There are 1 parameter(s) to be scanned
           RHH: user defined at 20 points
There will be   20 energy evaluations


         *************************************************************
                                TRAJECTORY STEP   1
                RHH  :   0.50118723
         *************************************************************
---------------------------------
CARTESIAN COORDINATES (ANGSTROEM)
---------------------------------
  H      0.000000    0.000000    0.000000
  H      0.501187    0.000000    0.000000

----------------------------
CARTESIAN COORDINATES (A.U.)
----------------------------
  NO LB      ZA    FRAG     MASS         X           Y           Z
   0 H     1.0000    0     1.008    0.000000    0.000000    0.000000
   1 H     1.0000    0     1.008    0.947107    0.000000    0.000000

--------------------------------
INTERNAL COORDINATES (ANGSTROEM)
--------------------------------
 H      0   0   0     0.000000000000     0.00000000     0.00000000
 H      1   0   0     0.501187233627     0.00000000     0.00000000

---------------------------
INTERNAL COORDINATES (A.U.)
---------------------------
 H      0   0   0     0.000000000000     0.00000000     0.00000000
 H      1   0   0     0.947106613373     0.00000000     0.00000000

---------------------
BASIS SET INFORMATION
---------------------
There are 1 groups of distinct atoms

 Group   1 Type H   : 7s3p2d1f contracted to 4s3p2d1f pattern {4111/111/11/1}

Atom   0H    basis set group =>   1
Atom   1H    basis set group =>   1
------------------------------------------------------------------------------
                           ORCA GTO INTEGRAL CALCULATION
------------------------------------------------------------------------------

                         BASIS SET STATISTICS AND STARTUP INFO

 # of primitive gaussian shells          ...   26
 # of primitive gaussian functions       ...   66
 # of contracted shells                  ...   20
 # of contracted basis functions         ...   60
 Highest angular momentum                ...    3
 Maximum contraction depth               ...    4
 Integral package used                   ... LIBINT
 Integral threshhold            Thresh   ...  2.500e-11
 Primitive cut-off              TCut     ...  2.500e-12


------------------------------ INTEGRAL EVALUATION ----------------------------


 * One electron integrals 
 Pre-screening matrix                    ... done
 Shell pair data                         ... done (   0.000 sec)

-------------------------------------------------------------------------------
                                 ORCA SCF
-------------------------------------------------------------------------------

------------
SCF SETTINGS
------------
Hamiltonian:
 Ab initio Hamiltonian  Method          .... Hartree-Fock(GTOs)


General Settings:
 Integral files         IntName         .... H2_0_1_CASSCF-2-14_def2-qzvpp.sp
 Hartree-Fock type      HFTyp           .... CASSCF
 Total Charge           Charge          ....    0
 Multiplicity           Mult            ....    1
 Number of Electrons    NEL             ....    2
 Basis Dimension        Dim             ....   60
 Nuclear Repulsion      ENuc            ....      1.0558473417 Eh


Diagonalization of the overlap matrix:
Smallest eigenvalue                        ... 5.708e-05
Time for diagonalization                   ...    0.074 sec
Threshold for overlap eigenvalues          ... 1.000e-08
Number of eigenvalues below threshold      ... 0
Time for construction of square roots      ...    0.004 sec
Total time needed                          ...    0.078 sec

-------------------
DFT GRID GENERATION
-------------------

General Integration Accuracy     IntAcc      ...  4.340
Radial Grid Type                 RadialGrid  ... Gauss-Chebyshev
Angular Grid (max. acc.)         AngularGrid ... Lebedev-110
Angular grid pruning method      GridPruning ... 3 (G Style)
Weight generation scheme         WeightScheme... Becke
Basis function cutoff            BFCut       ...    1.0000e-11
Integration weight cutoff        WCut        ...    1.0000e-14
Grids for H and He will be reduced by one unit

# of grid points (after initial pruning)     ...   1588 (   0.0 sec)
# of grid points (after weights+screening)   ...   1560 (   0.0 sec)
nearest neighbour list constructed           ...    0.0 sec
Grid point re-assignment to atoms done       ...    0.0 sec
Grid point division into batches done        ...    0.0 sec
Reduced shell lists constructed in    0.0 sec

Total number of grid points                  ...     1560
Total number of batches                      ...       26
Average number of points per batch           ...       60
Average number of grid points per atom       ...      780
Average number of shells per batch           ...    19.15 (95.74%)
Average number of basis functions per batch  ...    57.44 (95.74%)
Average number of large shells per batch     ...    18.78 (98.07%)
Average number of large basis fcns per batch ...    56.19 (97.81%)
Maximum spatial batch extension              ...  15.26, 21.59, 21.59 au
Average spatial batch extension              ...   4.46,  7.66,  7.77 au

Time for grid setup =    0.007 sec

------------------------------
INITIAL GUESS: MODEL POTENTIAL
------------------------------
Loading Hartree-Fock densities                     ... done
Calculating cut-offs                               ... done
Setting up the integral package                    ... done
Initializing the effective Hamiltonian             ... done
Starting the Coulomb interaction                   ... done (   0.0 sec)
Reading the grid                                   ... done
Mapping shells                                     ... done
Starting the XC term evaluation                    ... done (   0.0 sec)
Transforming the Hamiltonian                       ... done (   0.0 sec)
Diagonalizing the Hamiltonian                      ... done (   0.0 sec)
Back transforming the eigenvectors                 ... done (   0.0 sec)
Now organizing SCF variables                       ... done
                      ------------------
                      INITIAL GUESS DONE (   0.1 sec)
                      ------------------


 ... the calculation is a CASSCF calculation -I'm leaving here GOOD LUCK!!!

-------------------------------------------------------------------------------
                              ORCA-CASSCF
-------------------------------------------------------------------------------

Setting up the integral package       ... done
Building the CAS space                ... done (105 configurations for Mult=1)
----------------
GENERAL CI SETUP
----------------

Checking configurations                         ... done
Determining NSOMO,NDOMO and NVMO                ... done
Building up the tree                            ... done
Building N-1 electron tree                      ... done
Building RI configuration space                 ... done
Analyzing the RI configuration space            ... done
Determining NDOMO,NSOMO,NVMO for RI space       ... done
Determination of address arrays                 ... done
Looking for max. no of open shells              ... done
Setting up coupling coefficient container       ... Memory for address arrays  		      ... done
Make address arrays			      ... done
Memory for buffers 			      ... done
Setting up spin-function prototypes	      ... (MAXOPEN=2) 0 2 4 done
Trivial cases - DOMO's			      ... done (  0.0 MB)
Number of open shells			    ...  0
domo->virtual excitations			... done (  0.0 MB)
domo->somo excitations				... done (  0.0 MB)
somo->virtual excitations			... done (  0.0 MB)
somo->somo excitations				... done (  0.0 MB)
Number of open shells			    ...  2
domo->virtual excitations			... done (  0.0 MB)
domo->somo excitations				... done (  0.0 MB)
somo->virtual excitations			... done (  0.0 MB)
somo->somo excitations				... done (  0.0 MB)
Coupling container construction done
done
Now recording sub-block dimensions              ... done
Memory used for TGeneralCI arrays =     0.0 MB
  Original space  =     0.0
  RI       space  =     0.0
  Address arrays  =     0.0
  Coupling coeffs =     0.0
Multiplicity                          ...       1
# of electrons                        ...       2
# of orbitals                         ...      14
# of roots requested                  ...       1
Configuration space:
# of configurations                   ...     105
# of CSF's                            ...     105
# of rejected configurations          ...       0
Min. # of SOMOs                       ...       0
Max. # of SOMOs                       ...       2
Max. # of DOMOs                       ...       1
Max. # of VMOs                        ...      13
RI Configuration space:
# of configurations                   ...     105
# of CSF's                            ...     105
# of rejected configurations          ...       0
Min. # of SOMOs                       ...       0
Max. # of SOMOs                       ...       2
Max. # of DOMOs                       ...       1
Max. # of VMOs                        ...      13
(N-1) Electron Configuration space:
# of configurations                   ...      14
CSF dimensions:
      0 SOMOs give     1 CSFs
      2 SOMOs give     1 CSFs


SYSTEM-SPECIFIC SETTINGS:
Number of active electrons          ...    2
Number of active orbitals           ...   14
Total number of electrons           ...    2
Total number of orbitals            ...   60

Determined orbital ranges:
   Internal       0 -   -1 (   0 orbitals)
   Active         0 -   13 (  14 orbitals)
   External      14 -   59 (  46 orbitals)
Number of rotation parameters      ...    644

CI-STEP:
CI strategy                         ... General CI
Number of multiplicity blocks       ...    1
BLOCK  1 WEIGHT=   1.0000
  Multiplicity                      ...    1
  #(Configurations)                 ...  105
  #(CSFs)                           ...  105
  #(Roots)                          ...    1
    ROOT=0 WEIGHT=    1.000000

  PrintLevel                        ...    1
  N(GuessMat)                       ...       512
  MaxDim(CI)                        ...        10
  MaxIter(CI)                       ...        64
  Energy Tolerance CI               ...  2.50e-09
  Residual Tolerance CI             ...  2.50e-09
  Shift(CI)                         ...  1.00e-04

INTEGRAL-TRANSFORMATION-STEP:
  Algorithm                         ... EXACT

ORBITAL-IMPROVEMENT-STEP:
  Algorithm                         ... SuperCI(PT)
  Default Parametrization           ... CAYLEY
  Act-Act rotations                 ... depends on algorithm used

  Note: SuperCI(PT) will ignore FreezeIE, FreezeAct and FreezeGrad. In general Default settings are encouraged.
        In conjunction with ShiftUp, ShiftDn or GradScaling the performance of SuperCI(PT) is less optimal.  

  MaxRot                            ... 2.00e-01 
  Max. no of vectors (DIIS)         ... 15
  DThresh (cut-off) metric          ... 1.00e-06
  Switch step at gradient           ...  3.00e-02 
  Switch step at iteration          ...        50   
  Switch step to                    ... SuperCI(PT)    

SCF-SETTINGS:
  Incremental                       ... on
  RIJCOSX approximation             ... off
  RI-JK approximation               ... off
  AO integral handling              ... DIRECT
  Integral Neglect Thresh           ...  2.50e-11
  Primitive cutoff TCut             ...  2.50e-12
  Energy convergence tolerance      ...  2.50e-08
  Orbital gradient convergence      ...  2.50e-04
  Max. number of iterations         ...        75  


FINAL ORBITALS:
  Active   Orbitals                 ... natural 
  Internal Orbitals                 ... canonical 
  External Orbitals                 ... canonical 

------------------
CAS-SCF ITERATIONS
------------------


MACRO-ITERATION   1: 
   --- Inactive Energy E0 = 1.05584734 Eh
CI-ITERATION   0: 
    -1.087302999   0.000000000000 (    0.00)
   CI-PROBLEM SOLVED
   DENSITIES MADE

                 <<<<<<<<<<<<<<<<<<INITIAL CI STATE CHECK>>>>>>>>>>>>>>>>>>

BLOCK  1 MULT= 1 NROOTS= 1 
ROOT   0:  E=      -1.0873029991 Eh
      0.98246 [     0]: 20000000000000
      0.00449 [     2]: 10100000000000

                 <<<<<<<<<<<<<<<<<<INITIAL CI STATE CHECK>>>>>>>>>>>>>>>>>>

   E(CAS)=    -1.087302999 Eh DE=     0.000000000
   --- Energy gap subspaces: Ext-Act = 0.194   Act-Int = 0.600
   N(occ)=  1.97232 0.00310 0.00727 0.00220 0.00220 0.00388 0.00129 0.00002 0.00002 0.00442 0.00213 0.00009 0.00009 0.00097
   ||g|| =      0.179271078 Max(G)=     0.153146242 Rot=24,0
   --- Orbital Update [SuperCI(PT)]
   --- Canonicalize Internal Space
   --- Canonicalize External Space
   --- SX_PT (Skipped TA=2 IT=0): ||X|| =      2.341666029 Max(X)(24,9) =      0.945051967 
   --- SFit(Active Orbitals)

MACRO-ITERATION   2: 
   --- Inactive Energy E0 = 1.05584734 Eh
CI-ITERATION   0: 
    -1.094589082   0.000000000000 (    0.00)
   CI-PROBLEM SOLVED
   DENSITIES MADE
   E(CAS)=    -1.094589082 Eh DE=    -0.007286083
   --- Energy gap subspaces: Ext-Act = -0.347   Act-Int = 0.600
   N(occ)=  1.97095 0.00231 0.00437 0.00394 0.00394 0.00351 0.00203 0.00008 0.00008 0.00482 0.00249 0.00011 0.00011 0.00125
   ||g|| =      0.106834735 Max(G)=     0.071997384 Rot=24,0
   --- Orbital Update [SuperCI(PT)]
   --- Canonicalize Internal Space
   --- Canonicalize External Space
   --- SX_PT (Skipped TA=2 IT=0): ||X|| =      1.288592965 Max(X)(18,6) =      0.498887165 
   --- SFit(Active Orbitals)

MACRO-ITERATION   3: 
   --- Inactive Energy E0 = 1.05584734 Eh
CI-ITERATION   0: 
    -1.101843200   0.000000000000 (    0.00)
   CI-PROBLEM SOLVED
   DENSITIES MADE
   E(CAS)=    -1.101843200 Eh DE=    -0.007254118
   --- Energy gap subspaces: Ext-Act = -1.935   Act-Int = 0.600
   N(occ)=  1.97101 0.00249 0.00358 0.00400 0.00400 0.00348 0.00273 0.00012 0.00012 0.00464 0.00236 0.00008 0.00008 0.00131
   ||g|| =      0.059949882 Max(G)=    -0.045963665 Rot=18,0
   --- Orbital Update [SuperCI(PT)]
   --- Canonicalize Internal Space
   --- Canonicalize External Space
   --- SX_PT (Skipped TA=2 IT=0): ||X|| =      0.384079741 Max(X)(15,6) =     -0.182838274 
   --- SFit(Active Orbitals)

MACRO-ITERATION   4: 
   --- Inactive Energy E0 = 1.05584734 Eh
CI-ITERATION   0: 
    -1.102729553   0.000000000000 (    0.00)
   CI-PROBLEM SOLVED
   DENSITIES MADE
   E(CAS)=    -1.102729553 Eh DE=    -0.000886353
   --- Energy gap subspaces: Ext-Act = -1.866   Act-Int = 0.600
   N(occ)=  1.97071 0.00249 0.00375 0.00388 0.00388 0.00352 0.00284 0.00012 0.00012 0.00484 0.00240 0.00008 0.00008 0.00128
   ||g|| =      0.010509174 Max(G)=    -0.008458103 Rot=18,0
   --- Orbital Update [SuperCI(PT)]
   --- Canonicalize Internal Space
   --- Canonicalize External Space
   --- SX_PT (Skipped TA=2 IT=0): ||X|| =      0.080872815 Max(X)(16,7) =     -0.040408107 
   --- SFit(Active Orbitals)

MACRO-ITERATION   5: 
   --- Inactive Energy E0 = 1.05584734 Eh
CI-ITERATION   0: 
    -1.102758956   0.000000000000 (    0.00)
   CI-PROBLEM SOLVED
   DENSITIES MADE
   E(CAS)=    -1.102758956 Eh DE=    -0.000029403
   --- Energy gap subspaces: Ext-Act = -1.752   Act-Int = 0.600
   N(occ)=  1.97065 0.00248 0.00384 0.00386 0.00386 0.00352 0.00281 0.00012 0.00012 0.00489 0.00241 0.00008 0.00008 0.00128
   ||g|| =      0.004916920 Max(G)=     0.002712175 Rot=30,0
   --- Orbital Update [SuperCI(PT)]
   --- Canonicalize Internal Space
   --- Canonicalize External Space
   --- SX_PT (Skipped TA=2 IT=0): ||X|| =      0.036935717 Max(X)(14,6) =     -0.011998470 
   --- SFit(Active Orbitals)

MACRO-ITERATION   6: 
   --- Inactive Energy E0 = 1.05584734 Eh
CI-ITERATION   0: 
    -1.102763930   0.000000000000 (    0.00)
   CI-PROBLEM SOLVED
   DENSITIES MADE
   E(CAS)=    -1.102763930 Eh DE=    -0.000004974
   --- Energy gap subspaces: Ext-Act = -1.746   Act-Int = 0.600
   N(occ)=  1.97077 0.00249 0.00385 0.00380 0.00380 0.00353 0.00278 0.00011 0.00011 0.00490 0.00240 0.00008 0.00008 0.00128
   ||g|| =      0.004011735 Max(G)=     0.002478009 Rot=18,0
   --- Orbital Update [SuperCI(PT)]
   --- Canonicalize Internal Space
   --- Canonicalize External Space
   --- SX_PT (Skipped TA=2 IT=0): ||X|| =      0.027073692 Max(X)(15,8) =      0.011935351 
   --- SFit(Active Orbitals)

MACRO-ITERATION   7: 
   --- Inactive Energy E0 = 1.05584734 Eh
CI-ITERATION   0: 
    -1.102766919   0.000000000000 (    0.00)
   CI-PROBLEM SOLVED
   DENSITIES MADE
   E(CAS)=    -1.102766919 Eh DE=    -0.000002988
   --- Energy gap subspaces: Ext-Act = -1.728   Act-Int = 0.600
   N(occ)=  1.97073 0.00249 0.00386 0.00381 0.00381 0.00353 0.00279 0.00011 0.00011 0.00490 0.00240 0.00008 0.00008 0.00128
   ||g|| =      0.000628990 Max(G)=    -0.000415940 Rot=48,0
   --- Orbital Update [SuperCI(PT)]
   --- Canonicalize Internal Space
   --- Canonicalize External Space
   --- SX_PT (Skipped TA=2 IT=0): ||X|| =      0.005366227 Max(X)(16,7) =     -0.002757572 
   --- SFit(Active Orbitals)

MACRO-ITERATION   8: 
   --- Inactive Energy E0 = 1.05584734 Eh
CI-ITERATION   0: 
    -1.102767014   0.000000000000 (    0.00)
   CI-PROBLEM SOLVED
   DENSITIES MADE
   E(CAS)=    -1.102767014 Eh DE=    -0.000000096
   --- Energy gap subspaces: Ext-Act = -1.720   Act-Int = 0.600
   N(occ)=  1.97073 0.00249 0.00387 0.00381 0.00381 0.00353 0.00279 0.00011 0.00011 0.00490 0.00240 0.00008 0.00008 0.00128
   ||g|| =      0.000309472 Max(G)=    -0.000229535 Rot=30,0
   --- Orbital Update [SuperCI(PT)]
   --- Canonicalize Internal Space
   --- Canonicalize External Space
   --- SX_PT (Skipped TA=2 IT=0): ||X|| =      0.001272736 Max(X)(14,9) =     -0.000607116 
   --- SFit(Active Orbitals)

MACRO-ITERATION   9: 
   --- Inactive Energy E0 = 1.05584734 Eh
CI-ITERATION   0: 
    -1.102767023   0.000000000000 (    0.00)
   CI-PROBLEM SOLVED
   DENSITIES MADE
   E(CAS)=    -1.102767023 Eh DE=    -0.000000009
   --- Energy gap subspaces: Ext-Act = -1.720   Act-Int = 0.600
   N(occ)=  1.97072 0.00249 0.00387 0.00381 0.00381 0.00353 0.00279 0.00011 0.00011 0.00490 0.00240 0.00008 0.00008 0.00128
   ||g|| =      0.000064813 Max(G)=    -0.000042406 Rot=30,0
                     ---- THE CAS-SCF ENERGY   HAS CONVERGED ----
                     ---- THE CAS-SCF GRADIENT HAS CONVERGED ----
                            --- FINALIZING ORBITALS ---
                    ---- DOING ONE FINAL ITERATION FOR PRINTING ----
   --- Forming Natural Orbitals
   --- Canonicalize Internal Space
   --- Canonicalize External Space

MACRO-ITERATION  10: 
   --- Inactive Energy E0 = 1.05584734 Eh
   --- All densities will be recomputed
CI-ITERATION   0: 
    -1.102767023   0.000000000000 (    0.00)
   CI-PROBLEM SOLVED
   DENSITIES MADE
   E(CAS)=    -1.102767023 Eh DE=    -0.000000000
   --- Energy gap subspaces: Ext-Act = -3.502   Act-Int = 0.600
   N(occ)=  1.97517 0.00955 0.00689 0.00381 0.00381 0.00015 0.00013 0.00011 0.00011 0.00009 0.00008 0.00008 0.00000 0.00000
   ||g|| =      0.000064813 Max(G)=    -0.000048002 Rot=28,0
--------------
CASSCF RESULTS
--------------

Final CASSCF energy       : -1.102767023 Eh     -30.0078 eV

----------------
ORBITAL ENERGIES
----------------

  NO   OCC          E(Eh)            E(eV) 
   0   1.9752      -0.674274       -18.3479 
   1   0.0095       0.969322        26.3766 
   2   0.0069       1.060508        28.8579 
   3   0.0038       1.283182        34.9172 
   4   0.0038       1.283182        34.9172 
   5   0.0001       3.668469        99.8241 
   6   0.0001       3.405898        92.6792 
   7   0.0001       3.308846        90.0383 
   8   0.0001       3.308846        90.0383 
   9   0.0001       4.251169       115.6802 
  10   0.0001       3.307400        89.9989 
  11   0.0001       3.307409        89.9992 
  12   0.0000       1.240974        33.7686 
  13   0.0000       0.290185         7.8963 
  14   0.0000       0.748931        20.3795 
  15   0.0000       1.157697        31.5025 
  16   0.0000       1.157697        31.5025 
  17   0.0000       1.271260        34.5927 
  18   0.0000       1.574956        42.8567 
  19   0.0000       1.574956        42.8567 
  20   0.0000       2.402467        65.3745 
  21   0.0000       2.558470        69.6195 
  22   0.0000       2.558470        69.6195 
  23   0.0000       2.610813        71.0438 
  24   0.0000       2.610813        71.0438 
  25   0.0000       2.761836        75.1534 
  26   0.0000       3.379475        91.9602 
  27   0.0000       3.379475        91.9602 
  28   0.0000       5.116610       139.2300 
  29   0.0000       5.776572       157.1885 
  30   0.0000       5.776572       157.1885 
  31   0.0000       5.918323       161.0458 
  32   0.0000       5.918331       161.0460 
  33   0.0000       6.190753       168.4589 
  34   0.0000       6.341204       172.5529 
  35   0.0000       6.875589       187.0943 
  36   0.0000       6.875589       187.0943 
  37   0.0000       7.014779       190.8818 
  38   0.0000       7.014779       190.8818 
  39   0.0000       7.111165       193.5046 
  40   0.0000       7.111165       193.5046 
  41   0.0000       7.119484       193.7310 
  42   0.0000       7.119484       193.7310 
  43   0.0000       7.229004       196.7112 
  44   0.0000       7.229004       196.7112 
  45   0.0000       7.557620       205.6533 
  46   0.0000       7.573366       206.0818 
  47   0.0000       7.573367       206.0818 
  48   0.0000       8.056466       219.2276 
  49   0.0000       8.501448       231.3362 
  50   0.0000       8.501448       231.3362 
  51   0.0000      10.665284       290.2171 
  52   0.0000      10.665284       290.2171 
  53   0.0000      11.372326       309.4567 
  54   0.0000      11.372326       309.4567 
  55   0.0000      11.992843       326.3419 
  56   0.0000      15.080747       410.3680 
  57   0.0000      15.080747       410.3680 
  58   0.0000      15.675248       426.5452 
  59   0.0000      18.504700       503.5385 


---------------------------------------------
CAS-SCF STATES FOR BLOCK  1 MULT= 1 NROOTS= 1
---------------------------------------------

ROOT   0:  E=      -1.1027670235 Eh
      0.98759 [     0]: 20000000000000
      0.00477 [    14]: 02000000000000
      0.00345 [    27]: 00200000000000


--------------
DENSITY MATRIX
--------------

                  0          1          2          3          4          5    
      0       1.975171  -0.000000   0.000000  -0.000000  -0.000000   0.000000
      1      -0.000000   0.009549  -0.000000   0.000000  -0.000000   0.000000
      2       0.000000  -0.000000   0.006894  -0.000000  -0.000000   0.000000
      3      -0.000000   0.000000  -0.000000   0.003810  -0.000000  -0.000000
      4      -0.000000  -0.000000  -0.000000  -0.000000   0.003810  -0.000000
      5       0.000000   0.000000   0.000000  -0.000000  -0.000000   0.000148
      6       0.000000  -0.000000  -0.000000   0.000000  -0.000000   0.000000
      7       0.000000  -0.000000  -0.000000   0.000000  -0.000000   0.000000
      8       0.000000  -0.000000  -0.000000   0.000000   0.000000   0.000000
      9       0.000000  -0.000000  -0.000000   0.000000  -0.000000   0.000000
     10      -0.000000  -0.000000   0.000000  -0.000000   0.000000   0.000000
     11       0.000000  -0.000000  -0.000000  -0.000000  -0.000000  -0.000000
     12      -0.000000  -0.000000   0.000000  -0.000000  -0.000000   0.000000
     13       0.000000   0.000000  -0.000000   0.000000   0.000000  -0.000000
                  6          7          8          9         10         11    
      0       0.000000   0.000000   0.000000   0.000000  -0.000000   0.000000
      1      -0.000000  -0.000000  -0.000000  -0.000000  -0.000000  -0.000000
      2      -0.000000  -0.000000  -0.000000  -0.000000   0.000000  -0.000000
      3       0.000000   0.000000   0.000000   0.000000  -0.000000  -0.000000
      4      -0.000000  -0.000000   0.000000  -0.000000   0.000000  -0.000000
      5       0.000000   0.000000   0.000000   0.000000   0.000000  -0.000000
      6       0.000131  -0.000000  -0.000000   0.000000   0.000000  -0.000000
      7      -0.000000   0.000112  -0.000000   0.000000  -0.000000  -0.000000
      8      -0.000000  -0.000000   0.000112   0.000000   0.000000  -0.000000
      9       0.000000   0.000000   0.000000   0.000092   0.000000  -0.000000
     10       0.000000  -0.000000   0.000000   0.000000   0.000085   0.000000
     11      -0.000000  -0.000000  -0.000000  -0.000000   0.000000   0.000085
     12      -0.000000   0.000000  -0.000000  -0.000000   0.000000  -0.000000
     13      -0.000000   0.000000  -0.000000  -0.000000  -0.000000   0.000000
                  12         13    
      0      -0.000000   0.000000
      1      -0.000000   0.000000
      2       0.000000  -0.000000
      3      -0.000000   0.000000
      4      -0.000000   0.000000
      5       0.000000  -0.000000
      6      -0.000000  -0.000000
      7       0.000000   0.000000
      8      -0.000000  -0.000000
      9      -0.000000  -0.000000
     10       0.000000  -0.000000
     11      -0.000000   0.000000
     12       0.000000   0.000000
     13       0.000000   0.000000
Trace of the electron density:  2.000000

-----------------
ENERGY COMPONENTS
-----------------

One electron energy          :     -2.848549940 Eh         -77.5130 eV
Two electron energy          :      0.689935575 Eh          18.7741 eV
Nuclear repulsion energy     :      1.055847342 Eh          28.7311 eV
                               ----------------
                                   -1.102767023

Kinetic energy               :      1.492479032 Eh          40.6124 eV
Potential energy             :     -2.595246055 Eh         -70.6202 eV
Virial ratio                 :     -1.738882758 
                               ----------------
                                   -1.102767023

Core energy                  :      1.055847342 Eh       28.7311 eV


----------------------------
LOEWDIN ORBITAL-COMPOSITIONS
----------------------------

                      0         1         2         3         4         5   
                  -0.67427   0.96932   1.06051   1.28318   1.28318   3.66847
                   1.97517   0.00955   0.00689   0.00381   0.00381   0.00015
                  --------  --------  --------  --------  --------  --------
 0 H  s              47.2       9.8      35.6       0.0       0.0      17.9
 0 H  pz              0.0       0.0       0.0       0.0      46.7       0.0
 0 H  px              2.4      35.5      12.4       0.0       0.0      17.4
 0 H  py              0.0       0.0       0.0      46.7       0.0       0.0
 0 H  dz2             0.1       1.0       0.5       0.0       0.0       2.5
 0 H  dxz             0.0       0.0       0.0       0.0       3.2       0.0
 0 H  dx2y2           0.2       3.1       1.4       0.0       0.0       7.5
 0 H  dxy             0.0       0.0       0.0       3.2       0.0       0.0
 0 H  f+1             0.0       0.2       0.1       0.0       0.0       1.8
 0 H  f+3             0.0       0.3       0.1       0.0       0.0       2.9
 0 H  f-3             0.0       0.0       0.0       0.1       0.0       0.0
 1 H  s              47.2       9.8      35.6       0.0       0.0      17.9
 1 H  pz              0.0       0.0       0.0       0.0      46.7       0.0
 1 H  px              2.4      35.5      12.4       0.0       0.0      17.4
 1 H  py              0.0       0.0       0.0      46.7       0.0       0.0
 1 H  dz2             0.1       1.0       0.5       0.0       0.0       2.5
 1 H  dxz             0.0       0.0       0.0       0.0       3.2       0.0
 1 H  dx2y2           0.2       3.1       1.4       0.0       0.0       7.5
 1 H  dxy             0.0       0.0       0.0       3.2       0.0       0.0
 1 H  f+1             0.0       0.2       0.1       0.0       0.0       1.8
 1 H  f+3             0.0       0.3       0.1       0.0       0.0       2.9
 1 H  f-3             0.0       0.0       0.0       0.1       0.0       0.0

                      6         7         8         9        10        11   
                   3.40590   3.30885   3.30885   4.25117   3.30740   3.30741
                   0.00013   0.00011   0.00011   0.00009   0.00008   0.00008
                  --------  --------  --------  --------  --------  --------
 0 H  s               2.7       0.0       0.0      20.2       0.0       0.0
 0 H  pz              0.0      17.4       1.1       0.0       0.0       0.0
 0 H  px             24.2       0.0       0.0      14.6       0.0       0.0
 0 H  py              0.0       1.1      17.4       0.0       0.0       0.0
 0 H  dz2             4.6       0.0       0.0       3.1       0.0      34.4
 0 H  dxz             0.0      24.7       1.6       0.0       0.0       0.0
 0 H  dyz             0.0       0.0       0.0       0.0      45.8       0.0
 0 H  dx2y2          13.9       0.0       0.0       9.4       0.0      11.5
 0 H  dxy             0.0       1.6      24.7       0.0       0.0       0.0
 0 H  f0              0.0       1.8       0.1       0.0       0.0       0.0
 0 H  f+1             1.7       0.0       0.0       1.0       0.0       2.6
 0 H  f-1             0.0       0.0       0.3       0.0       0.0       0.0
 0 H  f+2             0.0       3.1       0.2       0.0       0.0       0.0
 0 H  f-2             0.0       0.0       0.0       0.0       4.2       0.0
 0 H  f+3             2.9       0.0       0.0       1.7       0.0       1.6
 0 H  f-3             0.0       0.3       4.6       0.0       0.0       0.0
 1 H  s               2.7       0.0       0.0      20.2       0.0       0.0
 1 H  pz              0.0      17.4       1.1       0.0       0.0       0.0
 1 H  px             24.2       0.0       0.0      14.6       0.0       0.0
 1 H  py              0.0       1.1      17.4       0.0       0.0       0.0
 1 H  dz2             4.6       0.0       0.0       3.1       0.0      34.4
 1 H  dxz             0.0      24.7       1.6       0.0       0.0       0.0
 1 H  dyz             0.0       0.0       0.0       0.0      45.8       0.0
 1 H  dx2y2          13.9       0.0       0.0       9.4       0.0      11.5
 1 H  dxy             0.0       1.6      24.7       0.0       0.0       0.0
 1 H  f0              0.0       1.8       0.1       0.0       0.0       0.0
 1 H  f+1             1.7       0.0       0.0       1.0       0.0       2.6
 1 H  f-1             0.0       0.0       0.3       0.0       0.0       0.0
 1 H  f+2             0.0       3.1       0.2       0.0       0.0       0.0
 1 H  f-2             0.0       0.0       0.0       0.0       4.2       0.0
 1 H  f+3             2.9       0.0       0.0       1.7       0.0       1.6
 1 H  f-3             0.0       0.3       4.6       0.0       0.0       0.0

                     12        13        14        15        16        17   
                   1.24097   0.29019   0.74893   1.15770   1.15770   1.27126
                   0.00000   0.00000   0.00000   0.00000   0.00000   0.00000
                  --------  --------  --------  --------  --------  --------
 0 H  s              42.4      49.7      46.8       0.0       0.0       7.3
 0 H  pz              0.0       0.0       0.0       0.0      48.7       0.0
 0 H  px              2.2       0.2       3.1       0.0       0.0      40.0
 0 H  py              0.0       0.0       0.0      48.7       0.0       0.0
 0 H  dz2             1.4       0.0       0.0       0.0       0.0       0.6
 0 H  dxz             0.0       0.0       0.0       0.0       1.1       0.0
 0 H  dx2y2           4.1       0.1       0.1       0.0       0.0       1.8
 0 H  dxy             0.0       0.0       0.0       1.1       0.0       0.0
 0 H  f+1             0.0       0.0       0.0       0.0       0.0       0.1
 0 H  f+3             0.0       0.0       0.0       0.0       0.0       0.2
 0 H  f-3             0.0       0.0       0.0       0.1       0.0       0.0
 1 H  s              42.4      49.7      46.8       0.0       0.0       7.3
 1 H  pz              0.0       0.0       0.0       0.0      48.7       0.0
 1 H  px              2.2       0.2       3.1       0.0       0.0      40.0
 1 H  py              0.0       0.0       0.0      48.7       0.0       0.0
 1 H  dz2             1.4       0.0       0.0       0.0       0.0       0.6
 1 H  dxz             0.0       0.0       0.0       0.0       1.1       0.0
 1 H  dx2y2           4.1       0.1       0.1       0.0       0.0       1.8
 1 H  dxy             0.0       0.0       0.0       1.1       0.0       0.0
 1 H  f+1             0.0       0.0       0.0       0.0       0.0       0.1
 1 H  f+3             0.0       0.0       0.0       0.0       0.0       0.2
 1 H  f-3             0.0       0.0       0.0       0.1       0.0       0.0

                     18        19        20        21        22        23   
                   1.57496   1.57496   2.40247   2.55847   2.55847   2.61081
                   0.00000   0.00000   0.00000   0.00000   0.00000   0.00000
                  --------  --------  --------  --------  --------  --------
 0 H  s               0.0       0.0      17.3       0.0       0.0       0.0
 0 H  pz              1.2      46.5       0.0       0.0       0.0       0.0
 0 H  px              0.0       0.0      21.3       0.0       0.0       0.0
 0 H  py             46.5       1.2       0.0       0.0       0.0       4.4
 0 H  dz2             0.0       0.0       2.3      32.0       0.0       0.0
 0 H  dxz             0.1       2.0       0.0       0.0       0.0       0.0
 0 H  dyz             0.0       0.0       0.0       0.0      42.7       0.0
 0 H  dx2y2           0.0       0.0       6.8      10.7       0.0       0.0
 0 H  dxy             2.0       0.1       0.0       0.0       0.0      40.5
 0 H  f+1             0.0       0.0       0.9       4.6       0.0       0.0
 0 H  f-1             0.0       0.0       0.0       0.0       0.0       0.3
 0 H  f+2             0.0       0.1       0.0       0.0       0.0       0.0
 0 H  f-2             0.0       0.0       0.0       0.0       7.3       0.0
 0 H  f+3             0.0       0.0       1.5       2.7       0.0       0.0
 0 H  f-3             0.2       0.0       0.0       0.0       0.0       4.8
 1 H  s               0.0       0.0      17.3       0.0       0.0       0.0
 1 H  pz              1.2      46.5       0.0       0.0       0.0       0.0
 1 H  px              0.0       0.0      21.3       0.0       0.0       0.0
 1 H  py             46.5       1.2       0.0       0.0       0.0       4.4
 1 H  dz2             0.0       0.0       2.3      32.0       0.0       0.0
 1 H  dxz             0.1       2.0       0.0       0.0       0.0       0.0
 1 H  dyz             0.0       0.0       0.0       0.0      42.7       0.0
 1 H  dx2y2           0.0       0.0       6.8      10.7       0.0       0.0
 1 H  dxy             2.0       0.1       0.0       0.0       0.0      40.5
 1 H  f+1             0.0       0.0       0.9       4.6       0.0       0.0
 1 H  f-1             0.0       0.0       0.0       0.0       0.0       0.3
 1 H  f+2             0.0       0.1       0.0       0.0       0.0       0.0
 1 H  f-2             0.0       0.0       0.0       0.0       7.3       0.0
 1 H  f+3             0.0       0.0       1.5       2.7       0.0       0.0
 1 H  f-3             0.2       0.0       0.0       0.0       0.0       4.8

                     24        25        26        27        28        29   
                   2.61081   2.76184   3.37948   3.37948   5.11661   5.77657
                   0.00000   0.00000   0.00000   0.00000   0.00000   0.00000
                  --------  --------  --------  --------  --------  --------
 0 H  s               0.0       6.4       0.0       0.0       0.8       0.0
 0 H  pz              4.4       0.0       0.0       8.0       0.0       0.0
 0 H  px              0.0      11.1       0.0       0.0       4.5       0.0
 0 H  py              0.0       0.0       8.0       0.0       0.0       0.0
 0 H  dz2             0.0       6.7       0.0       0.0       6.0       0.0
 0 H  dxz            40.5       0.0       0.0      32.9       0.0       0.0
 0 H  dx2y2           0.0      20.1       0.0       0.0      18.0       0.0
 0 H  dxy             0.0       0.0      32.9       0.0       0.0       0.0
 0 H  f0              1.9       0.0       0.0       3.4       0.0      31.2
 0 H  f+1             0.0       2.1       0.0       0.0       7.8       0.0
 0 H  f-1             0.0       0.0       0.6       0.0       0.0       0.0
 0 H  f+2             3.2       0.0       0.0       5.7       0.0      18.7
 0 H  f+3             0.0       3.6       0.0       0.0      12.9       0.0
 0 H  f-3             0.0       0.0       8.6       0.0       0.0       0.0
 1 H  s               0.0       6.4       0.0       0.0       0.8       0.0
 1 H  pz              4.4       0.0       0.0       8.0       0.0       0.0
 1 H  px              0.0      11.1       0.0       0.0       4.5       0.0
 1 H  py              0.0       0.0       8.0       0.0       0.0       0.0
 1 H  dz2             0.0       6.7       0.0       0.0       6.0       0.0
 1 H  dxz            40.5       0.0       0.0      32.9       0.0       0.0
 1 H  dx2y2           0.0      20.1       0.0       0.0      18.0       0.0
 1 H  dxy             0.0       0.0      32.9       0.0       0.0       0.0
 1 H  f0              1.9       0.0       0.0       3.4       0.0      31.2
 1 H  f+1             0.0       2.1       0.0       0.0       7.8       0.0
 1 H  f-1             0.0       0.0       0.6       0.0       0.0       0.0
 1 H  f+2             3.2       0.0       0.0       5.7       0.0      18.7
 1 H  f+3             0.0       3.6       0.0       0.0      12.9       0.0
 1 H  f-3             0.0       0.0       8.6       0.0       0.0       0.0

                     30        31        32        33        34        35   
                   5.77657   5.91832   5.91833   6.19075   6.34120   6.87559
                   0.00000   0.00000   0.00000   0.00000   0.00000   0.00000
                  --------  --------  --------  --------  --------  --------
 0 H  s               0.0       0.0       0.0      21.0      13.4       0.0
 0 H  px              0.0       0.0       0.0      15.0      33.9       0.0
 0 H  dz2             0.0      22.3       0.0       3.5       0.3      10.4
 0 H  dyz             0.0       0.0      29.8       0.0       0.0       0.0
 0 H  dx2y2           0.0       7.4       0.0      10.5       0.8       3.5
 0 H  f+1             0.0      12.6       0.0       0.0       0.7      22.6
 0 H  f-1            46.8       0.0       0.0       0.0       0.0       0.0
 0 H  f-2             0.0       0.0      20.2       0.0       0.0       0.0
 0 H  f+3             0.0       7.6       0.0       0.0       1.1      13.6
 0 H  f-3             3.1       0.0       0.0       0.0       0.0       0.0
 1 H  s               0.0       0.0       0.0      21.0      13.4       0.0
 1 H  px              0.0       0.0       0.0      15.0      33.9       0.0
 1 H  dz2             0.0      22.3       0.0       3.5       0.3      10.4
 1 H  dyz             0.0       0.0      29.8       0.0       0.0       0.0
 1 H  dx2y2           0.0       7.4       0.0      10.5       0.8       3.5
 1 H  f+1             0.0      12.6       0.0       0.0       0.7      22.6
 1 H  f-1            46.8       0.0       0.0       0.0       0.0       0.0
 1 H  f-2             0.0       0.0      20.2       0.0       0.0       0.0
 1 H  f+3             0.0       7.6       0.0       0.0       1.1      13.6
 1 H  f-3             3.1       0.0       0.0       0.0       0.0       0.0

                     36        37        38        39        40        41   
                   6.87559   7.01478   7.01478   7.11116   7.11116   7.11948
                   0.00000   0.00000   0.00000   0.00000   0.00000   0.00000
                  --------  --------  --------  --------  --------  --------
 0 H  pz              0.0      25.6       0.0       0.0       7.0       0.0
 0 H  py              0.0       0.0      25.6       7.0       0.0       0.0
 0 H  dxz             0.0       0.7       0.0       0.0       7.5       0.0
 0 H  dyz            13.8       0.0       0.0       0.0       0.0       0.0
 0 H  dxy             0.0       0.0       0.7       7.5       0.0       0.0
 0 H  f0              0.0       8.9       0.0       0.0      13.3      27.7
 0 H  f-1             0.0       0.0       1.5       2.2       0.0       5.3
 0 H  f+2             0.0      14.8       0.0       0.0      22.1      16.6
 0 H  f-2            36.2       0.0       0.0       0.0       0.0       0.0
 0 H  f-3             0.0       0.0      22.2      33.2       0.0       0.4
 1 H  pz              0.0      25.6       0.0       0.0       7.0       0.0
 1 H  py              0.0       0.0      25.6       7.0       0.0       0.0
 1 H  dxz             0.0       0.7       0.0       0.0       7.5       0.0
 1 H  dyz            13.8       0.0       0.0       0.0       0.0       0.0
 1 H  dxy             0.0       0.0       0.7       7.5       0.0       0.0
 1 H  f0              0.0       8.9       0.0       0.0      13.3      27.7
 1 H  f-1             0.0       0.0       1.5       2.2       0.0       5.3
 1 H  f+2             0.0      14.8       0.0       0.0      22.1      16.6
 1 H  f-2            36.2       0.0       0.0       0.0       0.0       0.0
 1 H  f-3             0.0       0.0      22.2      33.2       0.0       0.4

                     42        43        44        45        46        47   
                   7.11948   7.22900   7.22900   7.55762   7.57337   7.57337
                   0.00000   0.00000   0.00000   0.00000   0.00000   0.00000
                  --------  --------  --------  --------  --------  --------
 0 H  s               0.0       0.0       0.0       2.5       0.0       0.0
 0 H  pz              0.0       9.9       0.0       0.0       0.0       0.0
 0 H  px              0.0       0.0       0.0       4.5       0.0       0.0
 0 H  py              0.0       0.0       9.9       0.0       0.0       0.0
 0 H  dz2             0.0       0.0       0.0       3.7      18.3       0.0
 0 H  dxz             0.0      30.6       0.0       0.0       0.0       0.0
 0 H  dyz             0.0       0.0       0.0       0.0       0.0      24.4
 0 H  dx2y2           0.0       0.0       0.0      11.0       6.1       0.0
 0 H  dxy             0.0       0.0      30.6       0.0       0.0       0.0
 0 H  f0              3.6       3.6       0.0       0.0       0.0       0.0
 0 H  f+1             0.0       0.0       0.0      10.6      16.0       0.0
 0 H  f-1            41.5       0.0       0.6       0.0       0.0       0.0
 0 H  f+2             2.1       5.9       0.0       0.0       0.0       0.0
 0 H  f-2             0.0       0.0       0.0       0.0       0.0      25.6
 0 H  f+3             0.0       0.0       0.0      17.7       9.6       0.0
 0 H  f-3             2.8       0.0       8.9       0.0       0.0       0.0
 1 H  s               0.0       0.0       0.0       2.5       0.0       0.0
 1 H  pz              0.0       9.9       0.0       0.0       0.0       0.0
 1 H  px              0.0       0.0       0.0       4.5       0.0       0.0
 1 H  py              0.0       0.0       9.9       0.0       0.0       0.0
 1 H  dz2             0.0       0.0       0.0       3.7      18.3       0.0
 1 H  dxz             0.0      30.6       0.0       0.0       0.0       0.0
 1 H  dyz             0.0       0.0       0.0       0.0       0.0      24.4
 1 H  dx2y2           0.0       0.0       0.0      11.0       6.1       0.0
 1 H  dxy             0.0       0.0      30.6       0.0       0.0       0.0
 1 H  f0              3.6       3.6       0.0       0.0       0.0       0.0
 1 H  f+1             0.0       0.0       0.0      10.6      16.0       0.0
 1 H  f-1            41.5       0.0       0.6       0.0       0.0       0.0
 1 H  f+2             2.1       5.9       0.0       0.0       0.0       0.0
 1 H  f-2             0.0       0.0       0.0       0.0       0.0      25.6
 1 H  f+3             0.0       0.0       0.0      17.7       9.6       0.0
 1 H  f-3             2.8       0.0       8.9       0.0       0.0       0.0

                     48        49        50        51        52        53   
                   8.05647   8.50145   8.50145  10.66528  10.66528  11.37233
                   0.00000   0.00000   0.00000   0.00000   0.00000   0.00000
                  --------  --------  --------  --------  --------  --------
 0 H  s               1.6       0.0       0.0       0.0       0.0       0.0
 0 H  pz              0.0       0.0      47.4       0.0      15.7       0.0
 0 H  px              3.2       0.0       0.0       0.0       0.0       0.0
 0 H  py              0.0      47.4       0.0      15.7       0.0       0.0
 0 H  dz2             6.6       0.0       0.0       0.0       0.0      32.6
 0 H  dxz             0.0       0.0       2.6       0.0      23.0       0.0
 0 H  dx2y2          19.9       0.0       0.0       0.0       0.0      10.9
 0 H  dxy             0.0       2.6       0.0      23.0       0.0       0.0
 0 H  f0              0.0       0.0       0.0       0.0       4.3       0.0
 0 H  f+1             7.0       0.0       0.0       0.0       0.0       4.1
 0 H  f-1             0.0       0.0       0.0       0.7       0.0       0.0
 0 H  f+2             0.0       0.0       0.0       0.0       7.1       0.0
 0 H  f+3            11.7       0.0       0.0       0.0       0.0       2.4
 0 H  f-3             0.0       0.0       0.0      10.6       0.0       0.0
 1 H  s               1.6       0.0       0.0       0.0       0.0       0.0
 1 H  pz              0.0       0.0      47.4       0.0      15.7       0.0
 1 H  px              3.2       0.0       0.0       0.0       0.0       0.0
 1 H  py              0.0      47.4       0.0      15.7       0.0       0.0
 1 H  dz2             6.6       0.0       0.0       0.0       0.0      32.6
 1 H  dxz             0.0       0.0       2.6       0.0      23.0       0.0
 1 H  dx2y2          19.9       0.0       0.0       0.0       0.0      10.9
 1 H  dxy             0.0       2.6       0.0      23.0       0.0       0.0
 1 H  f0              0.0       0.0       0.0       0.0       4.3       0.0
 1 H  f+1             7.0       0.0       0.0       0.0       0.0       4.1
 1 H  f-1             0.0       0.0       0.0       0.7       0.0       0.0
 1 H  f+2             0.0       0.0       0.0       0.0       7.1       0.0
 1 H  f+3            11.7       0.0       0.0       0.0       0.0       2.4
 1 H  f-3             0.0       0.0       0.0      10.6       0.0       0.0

                     54        55        56        57        58        59   
                  11.37233  11.99284  15.08075  15.08075  15.67525  18.50470
                   0.00000   0.00000   0.00000   0.00000   0.00000   0.00000
                  --------  --------  --------  --------  --------  --------
 0 H  s               0.0      11.2       0.0       0.0      21.7      24.4
 0 H  pz              0.0       0.0       0.0      20.3       0.0       0.0
 0 H  px              0.0      21.0       0.0       0.0      21.9      11.8
 0 H  py              0.0       0.0      20.3       0.0       0.0       0.0
 0 H  dz2             0.0       2.6       0.0       0.0       1.3       3.2
 0 H  dxz             0.0       0.0       0.0      29.6       0.0       0.0
 0 H  dyz            43.5       0.0       0.0       0.0       0.0       0.0
 0 H  dx2y2           0.0       7.9       0.0       0.0       3.9       9.6
 0 H  dxy             0.0       0.0      29.6       0.0       0.0       0.0
 0 H  f+1             0.0       2.7       0.0       0.0       0.5       0.4
 0 H  f-2             6.5       0.0       0.0       0.0       0.0       0.0
 0 H  f+3             0.0       4.5       0.0       0.0       0.8       0.6
 0 H  f-3             0.0       0.0       0.1       0.0       0.0       0.0
 1 H  s               0.0      11.2       0.0       0.0      21.7      24.4
 1 H  pz              0.0       0.0       0.0      20.3       0.0       0.0
 1 H  px              0.0      21.0       0.0       0.0      21.9      11.8
 1 H  py              0.0       0.0      20.3       0.0       0.0       0.0
 1 H  dz2             0.0       2.6       0.0       0.0       1.3       3.2
 1 H  dxz             0.0       0.0       0.0      29.6       0.0       0.0
 1 H  dyz            43.5       0.0       0.0       0.0       0.0       0.0
 1 H  dx2y2           0.0       7.9       0.0       0.0       3.9       9.6
 1 H  dxy             0.0       0.0      29.6       0.0       0.0       0.0
 1 H  f+1             0.0       2.7       0.0       0.0       0.5       0.4
 1 H  f-2             6.5       0.0       0.0       0.0       0.0       0.0
 1 H  f+3             0.0       4.5       0.0       0.0       0.8       0.6
 1 H  f-3             0.0       0.0       0.1       0.0       0.0       0.0


----------------------------
LOEWDIN REDUCED ACTIVE MOs  
----------------------------

                      0         1         2         3         4         5   
                  -0.67427   0.96932   1.06051   1.28318   1.28318   3.66847
                   1.97517   0.00955   0.00689   0.00381   0.00381   0.00015
                  --------  --------  --------  --------  --------  --------
 0 H  s              47.2       9.8      35.6       0.0       0.0      17.9
 0 H  pz              0.0       0.0       0.0       0.0      46.7       0.0
 0 H  px              2.4      35.5      12.4       0.0       0.0      17.4
 0 H  py              0.0       0.0       0.0      46.7       0.0       0.0
 0 H  dx2y2           0.2       3.1       1.4       0.0       0.0       7.5
 1 H  s              47.2       9.8      35.6       0.0       0.0      17.9
 1 H  pz              0.0       0.0       0.0       0.0      46.7       0.0
 1 H  px              2.4      35.5      12.4       0.0       0.0      17.4
 1 H  py              0.0       0.0       0.0      46.7       0.0       0.0
 1 H  dx2y2           0.2       3.1       1.4       0.0       0.0       7.5

                      6         7         8         9        10        11   
                   3.40590   3.30885   3.30885   4.25117   3.30740   3.30741
                   0.00013   0.00011   0.00011   0.00009   0.00008   0.00008
                  --------  --------  --------  --------  --------  --------
 0 H  s               2.7       0.0       0.0      20.2       0.0       0.0
 0 H  pz              0.0      17.4       1.1       0.0       0.0       0.0
 0 H  px             24.2       0.0       0.0      14.6       0.0       0.0
 0 H  py              0.0       1.1      17.4       0.0       0.0       0.0
 0 H  dz2             4.6       0.0       0.0       3.1       0.0      34.4
 0 H  dxz             0.0      24.7       1.6       0.0       0.0       0.0
 0 H  dyz             0.0       0.0       0.0       0.0      45.8       0.0
 0 H  dx2y2          13.9       0.0       0.0       9.4       0.0      11.5
 0 H  dxy             0.0       1.6      24.7       0.0       0.0       0.0
 1 H  s               2.7       0.0       0.0      20.2       0.0       0.0
 1 H  pz              0.0      17.4       1.1       0.0       0.0       0.0
 1 H  px             24.2       0.0       0.0      14.6       0.0       0.0
 1 H  py              0.0       1.1      17.4       0.0       0.0       0.0
 1 H  dz2             4.6       0.0       0.0       3.1       0.0      34.4
 1 H  dxz             0.0      24.7       1.6       0.0       0.0       0.0
 1 H  dyz             0.0       0.0       0.0       0.0      45.8       0.0
 1 H  dx2y2          13.9       0.0       0.0       9.4       0.0      11.5
 1 H  dxy             0.0       1.6      24.7       0.0       0.0       0.0

                     12        13        14        15        16        17   
                   1.24097   0.29019   0.74893   1.15770   1.15770   1.27126
                   0.00000   0.00000   0.00000   0.00000   0.00000   0.00000
                  --------  --------  --------  --------  --------  --------
 0 H  s              42.4      49.7      46.8       0.0       0.0       7.3
 0 H  pz              0.0       0.0       0.0       0.0      48.7       0.0
 0 H  px              2.2       0.2       3.1       0.0       0.0      40.0
 0 H  py              0.0       0.0       0.0      48.7       0.0       0.0
 1 H  s              42.4      49.7      46.8       0.0       0.0       7.3
 1 H  pz              0.0       0.0       0.0       0.0      48.7       0.0
 1 H  px              2.2       0.2       3.1       0.0       0.0      40.0
 1 H  py              0.0       0.0       0.0      48.7       0.0       0.0

------------------------------------------------------------------------------
                           ORCA POPULATION ANALYSIS
------------------------------------------------------------------------------
Input electron density              ... H2_0_1_CASSCF-2-14_def2-qzvpp.sp.scfp
BaseName (.gbw .S,...)              ... H2_0_1_CASSCF-2-14_def2-qzvpp.sp

                    ********************************
                    * MULLIKEN POPULATION ANALYSIS *
                    ********************************

-----------------------
MULLIKEN ATOMIC CHARGES
-----------------------
   0 H :   -0.000000
   1 H :    0.000000
Sum of atomic charges:   -0.0000000

--------------------------------
MULLIKEN REDUCED ORBITAL CHARGES
--------------------------------
  0 H s       :     0.982823  s :     0.982823
      pz      :     0.001872  p :     0.016830
      px      :     0.013085
      py      :     0.001872
      dz2     :     0.000048  d :     0.000329
      dxz     :     0.000087
      dyz     :     0.000039
      dx2y2   :     0.000067
      dxy     :     0.000087
      f0      :     0.000001  f :     0.000018
      f+1     :     0.000005
      f-1     :     0.000000
      f+2     :     0.000001
      f-2     :     0.000003
      f+3     :     0.000006
      f-3     :     0.000001
  1 H s       :     0.982823  s :     0.982823
      pz      :     0.001872  p :     0.016830
      px      :     0.013085
      py      :     0.001872
      dz2     :     0.000048  d :     0.000329
      dxz     :     0.000087
      dyz     :     0.000039
      dx2y2   :     0.000067
      dxy     :     0.000087
      f0      :     0.000001  f :     0.000018
      f+1     :     0.000005
      f-1     :     0.000000
      f+2     :     0.000001
      f-2     :     0.000003
      f+3     :     0.000006
      f-3     :     0.000001

------------------------
MULLIKEN OVERLAP CHARGES
------------------------
B(  0-H ,  1-H ) :   0.8967 


                     *******************************
                     * LOEWDIN POPULATION ANALYSIS *
                     *******************************

----------------------
LOEWDIN ATOMIC CHARGES
----------------------
   0 H :   -0.000000
   1 H :    0.000000

-------------------------------
LOEWDIN REDUCED ORBITAL CHARGES
-------------------------------
  0 H s       :     0.936060  s :     0.936060
      pz      :     0.001799  p :     0.056093
      px      :     0.052495
      py      :     0.001799
      dz2     :     0.001721  d :     0.007145
      dxz     :     0.000150
      dyz     :     0.000039
      dx2y2   :     0.005085
      dxy     :     0.000150
      f0      :     0.000004  f :     0.000702
      f+1     :     0.000254
      f-1     :     0.000001
      f+2     :     0.000007
      f-2     :     0.000004
      f+3     :     0.000421
      f-3     :     0.000011
  1 H s       :     0.936060  s :     0.936060
      pz      :     0.001799  p :     0.056093
      px      :     0.052495
      py      :     0.001799
      dz2     :     0.001721  d :     0.007145
      dxz     :     0.000150
      dyz     :     0.000039
      dx2y2   :     0.005085
      dxy     :     0.000150
      f0      :     0.000004  f :     0.000702
      f+1     :     0.000254
      f-1     :     0.000001
      f+2     :     0.000007
      f-2     :     0.000004
      f+3     :     0.000421
      f-3     :     0.000011

---------------------------------
LOEWDIN BOND ORDERS (THRESH 0.050000)
---------------------------------
B(  0-H ,  1-H ) :   0.9751 


                      *****************************
                      * MAYER POPULATION ANALYSIS *
                      *****************************

  NA   - Mulliken gross atomic population
  ZA   - Total nuclear charge
  QA   - Mulliken gross atomic charge
  VA   - Mayer's total valence
  BVA  - Mayer's bonded valence
  FA   - Mayer's free valence

  ATOM       NA         ZA         QA         VA         BVA        FA
  0 H      1.0000     1.0000    -0.0000     1.0218     0.9726     0.0493
  1 H      1.0000     1.0000     0.0000     1.0218     0.9726     0.0493

  Mayer bond orders larger than 0.100000
B(  0-H ,  1-H ) :   0.9726 


-------------------------------------------------------------
 Forming the transition density       ... done in 0.001901 sec
-------------------------------------------------------------



==========================================
CASSCF UV, CD spectra and dipole moments
==========================================
-------------------
ABSORPTION SPECTRUM
-------------------

Center of mass           = (  0.4736,  0.0000,  0.0000)
Nuclear contribution to the dipole moment =     0.000000,    0.000000,    0.000000 au

Calculating the dipole integrals                  ... done
Transforming integrals                            ... done
Calculating the Linear Momentum integrals         ... done
Transforming integrals                            ... done
Calculating the Angular Momentum integrals        ... done
Transforming integrals                            ... done

Ground state mult:    1
Ground state block:   0
Ground state root:    0


------------------------------------------------------------------------------
                                 DIPOLE MOMENTS
------------------------------------------------------------------------------
  Root  Block           TX        TY        TZ           |T|
                      (Debye)   (Debye)   (Debye)      (Debye)
------------------------------------------------------------------------------
    0    0           -0.00000  -0.00000  -0.00000      0.00000

--------------
CASSCF TIMINGS
--------------

Total time                       ...        3.8 sec
Sum of individual times          ...        3.6 sec ( 93.8%)

Calculation of AO operators
   F(Core) operator              ...        0.1 sec (  1.4%)
   G(Act) operator               ...        0.9 sec ( 23.3%)
   J(AO) operators               ...        0.0 sec (  0.0%)
Calculation of MO transformed quantities
   J(MO) operators               ...        2.2 sec ( 56.8%)
   (pq|rs) integrals             ...        0.0 sec (  0.0%)
   AO->MO one electron integrals ...        0.0 sec (  0.5%)
Configuration interaction steps
   CI-setup phase                ...        0.0 sec (  0.0%)
   CI-solution phase             ...        0.3 sec (  8.0%)
   Generation of densities       ...        0.1 sec (  1.5%)
Orbital improvement steps
   Orbital gradient              ...        0.1 sec (  1.9%)
   O(1) converger                ...        0.0 sec (  0.2%)
Properties                       ...        0.0 sec (  0.2%)
   SOC integral calculation      ...        0.0 sec (  0.0%)
   SSC RMEs (incl. integrals)    ...        0.0 sec (  0.0%)
   SOC RMEs                      ...        0.0 sec (  0.0%)

-------------------------   --------------------
FINAL SINGLE POINT ENERGY        -1.102767023481
-------------------------   --------------------

Storing actual gbw-file in H2_0_1_CASSCF-2-14_def2-qzvpp.sp.001.gbw ... done

                            ***************************************
                            *     ORCA property calculations      *
                            ***************************************

                                    ---------------------
                                    Active property flags
                                    ---------------------
   (+) Dipole Moment


------------------------------------------------------------------------------
                       ORCA ELECTRIC PROPERTIES CALCULATION
------------------------------------------------------------------------------

Dipole Moment Calculation                       ... on
Quadrupole Moment Calculation                   ... off
Polarizability Calculation                      ... off
GBWName                                         ... H2_0_1_CASSCF-2-14_def2-qzvpp.sp.gbw
Electron density file                           ... H2_0_1_CASSCF-2-14_def2-qzvpp.sp.scfp
The origin for moment calculation is the CENTER OF MASS  = ( 0.473553,  0.000000  0.000000)

-------------
DIPOLE MOMENT
-------------
                                X             Y             Z
Electronic contribution:     -0.00000      -0.00000      -0.00000
Nuclear contribution   :      0.00000       0.00000       0.00000
                        -----------------------------------------
Total Dipole Moment    :     -0.00000      -0.00000      -0.00000
                        -----------------------------------------
Magnitude (a.u.)       :      0.00000
Magnitude (Debye)      :      0.00000



--------------------
Rotational spectrum 
--------------------
 
Rotational constants in cm-1:     0.000000   133.157724   133.157724 
Rotational constants in MHz :     0.000000 3991968.149099 3991968.149099 

 Dipole components along the rotational axes: 
x,y,z [a.u.] :    -0.000000    -0.000000    -0.000000 
x,y,z [Debye]:    -0.000000    -0.000000    -0.000000 

 

         *************************************************************
                                TRAJECTORY STEP   2
                RHH  :   0.60842987
         *************************************************************
---------------------------------
CARTESIAN COORDINATES (ANGSTROEM)
---------------------------------
  H      0.000000    0.000000    0.000000
  H      0.608430    0.000000    0.000000

----------------------------
CARTESIAN COORDINATES (A.U.)
----------------------------
  NO LB      ZA    FRAG     MASS         X           Y           Z
   0 H     1.0000    0     1.008    0.000000    0.000000    0.000000
   1 H     1.0000    0     1.008    1.149766    0.000000    0.000000

--------------------------------
INTERNAL COORDINATES (ANGSTROEM)
--------------------------------
 H      0   0   0     0.000000000000     0.00000000     0.00000000
 H      1   0   0     0.608429869077     0.00000000     0.00000000

---------------------------
INTERNAL COORDINATES (A.U.)
---------------------------
 H      0   0   0     0.000000000000     0.00000000     0.00000000
 H      1   0   0     1.149765824252     0.00000000     0.00000000


Diagonalization of the overlap matrix:
Smallest eigenvalue                        ... 8.441e-05
Time for diagonalization                   ...    0.002 sec
Threshold for overlap eigenvalues          ... 1.000e-08
Number of eigenvalues below threshold      ... 0
Time for construction of square roots      ...    0.001 sec
Total time needed                          ...    0.003 sec



 ... the calculation is a CASSCF calculation -I'm leaving here GOOD LUCK!!!

-------------------------------------------------------------------------------
                              ORCA-CASSCF
-------------------------------------------------------------------------------

Setting up the integral package       ... done
Building the CAS space                ... done (105 configurations for Mult=1)
----------------
GENERAL CI SETUP
----------------

Checking configurations                         ... done
Determining NSOMO,NDOMO and NVMO                ... done
Building up the tree                            ... done
Building N-1 electron tree                      ... done
Building RI configuration space                 ... done
Analyzing the RI configuration space            ... done
Determining NDOMO,NSOMO,NVMO for RI space       ... done
Determination of address arrays                 ... done
Looking for max. no of open shells              ... done
Setting up coupling coefficient container       ... Memory for address arrays  		      ... done
Make address arrays			      ... done
Memory for buffers 			      ... done
Setting up spin-function prototypes	      ... (MAXOPEN=2) 0 2 4 done
Trivial cases - DOMO's			      ... done (  0.0 MB)
Number of open shells			    ...  0
domo->virtual excitations			... done (  0.0 MB)
domo->somo excitations				... done (  0.0 MB)
somo->virtual excitations			... done (  0.0 MB)
somo->somo excitations				... done (  0.0 MB)
Number of open shells			    ...  2
domo->virtual excitations			... done (  0.0 MB)
domo->somo excitations				... done (  0.0 MB)
somo->virtual excitations			... done (  0.0 MB)
somo->somo excitations				... done (  0.0 MB)
Coupling container construction done
done
Now recording sub-block dimensions              ... done
Memory used for TGeneralCI arrays =     0.0 MB
  Original space  =     0.0
  RI       space  =     0.0
  Address arrays  =     0.0
  Coupling coeffs =     0.0
Multiplicity                          ...       1
# of electrons                        ...       2
# of orbitals                         ...      14
# of roots requested                  ...       1
Configuration space:
# of configurations                   ...     105
# of CSF's                            ...     105
# of rejected configurations          ...       0
Min. # of SOMOs                       ...       0
Max. # of SOMOs                       ...       2
Max. # of DOMOs                       ...       1
Max. # of VMOs                        ...      13
RI Configuration space:
# of configurations                   ...     105
# of CSF's                            ...     105
# of rejected configurations          ...       0
Min. # of SOMOs                       ...       0
Max. # of SOMOs                       ...       2
Max. # of DOMOs                       ...       1
Max. # of VMOs                        ...      13
(N-1) Electron Configuration space:
# of configurations                   ...      14
CSF dimensions:
      0 SOMOs give     1 CSFs
      2 SOMOs give     1 CSFs


SYSTEM-SPECIFIC SETTINGS:
Number of active electrons          ...    2
Number of active orbitals           ...   14
Total number of electrons           ...    2
Total number of orbitals            ...   60

Determined orbital ranges:
   Internal       0 -   -1 (   0 orbitals)
   Active         0 -   13 (  14 orbitals)
   External      14 -   59 (  46 orbitals)
Number of rotation parameters      ...    644

CI-STEP:
CI strategy                         ... General CI
Number of multiplicity blocks       ...    1
BLOCK  1 WEIGHT=   1.0000
  Multiplicity                      ...    1
  #(Configurations)                 ...  105
  #(CSFs)                           ...  105
  #(Roots)                          ...    1
    ROOT=0 WEIGHT=    1.000000

  PrintLevel                        ...    1
  N(GuessMat)                       ...       512
  MaxDim(CI)                        ...        10
  MaxIter(CI)                       ...        64
  Energy Tolerance CI               ...  2.50e-09
  Residual Tolerance CI             ...  2.50e-09
  Shift(CI)                         ...  1.00e-04

INTEGRAL-TRANSFORMATION-STEP:
  Algorithm                         ... EXACT

ORBITAL-IMPROVEMENT-STEP:
  Algorithm                         ... SuperCI(PT)
  Default Parametrization           ... CAYLEY
  Act-Act rotations                 ... depends on algorithm used

  Note: SuperCI(PT) will ignore FreezeIE, FreezeAct and FreezeGrad. In general Default settings are encouraged.
        In conjunction with ShiftUp, ShiftDn or GradScaling the performance of SuperCI(PT) is less optimal.  

  MaxRot                            ... 2.00e-01 
  Max. no of vectors (DIIS)         ... 15
  DThresh (cut-off) metric          ... 1.00e-06
  Switch step at gradient           ...  3.00e-02 
  Switch step at iteration          ...        50   
  Switch step to                    ... SuperCI(PT)    

SCF-SETTINGS:
  Incremental                       ... on
  RIJCOSX approximation             ... off
  RI-JK approximation               ... off
  AO integral handling              ... DIRECT
  Integral Neglect Thresh           ...  2.50e-11
  Primitive cutoff TCut             ...  2.50e-12
  Energy convergence tolerance      ...  2.50e-08
  Orbital gradient convergence      ...  2.50e-04
  Max. number of iterations         ...        75  


FINAL ORBITALS:
  Active   Orbitals                 ... natural 
  Internal Orbitals                 ... canonical 
  External Orbitals                 ... canonical 

------------------
CAS-SCF ITERATIONS
------------------


MACRO-ITERATION   1: 
   --- Inactive Energy E0 = 0.86974232 Eh
CI-ITERATION   0: 
    -1.156041594   0.000000000000 (    0.00)
   CI-PROBLEM SOLVED
   DENSITIES MADE

                 <<<<<<<<<<<<<<<<<<INITIAL CI STATE CHECK>>>>>>>>>>>>>>>>>>

BLOCK  1 MULT= 1 NROOTS= 1 
ROOT   0:  E=      -1.1560415937 Eh
      0.98417 [     0]: 20000000000000
      0.00664 [    14]: 02000000000000
      0.00308 [    27]: 00200000000000

                 <<<<<<<<<<<<<<<<<<INITIAL CI STATE CHECK>>>>>>>>>>>>>>>>>>

   E(CAS)=    -1.156041594 Eh DE=     0.000000000
   --- Energy gap subspaces: Ext-Act = -3.501   Act-Int = 0.600
   N(occ)=  1.97028 0.01329 0.00789 0.00376 0.00376 0.00015 0.00036 0.00012 0.00012 0.00009 0.00008 0.00008 0.00002 0.00000
   ||g|| =      0.106964145 Max(G)=     0.098448826 Rot=59,0
   --- Orbital Update [SuperCI(PT)]
   --- Canonicalize Internal Space
   --- Canonicalize External Space
   --- SX_PT (Skipped TA=1 IT=0): ||X|| =      0.568576940 Max(X)(20,12) =     -0.462720124 
   --- SFit(Active Orbitals)

MACRO-ITERATION   2: 
   --- Inactive Energy E0 = 0.86974232 Eh
CI-ITERATION   0: 
    -1.156348218   0.000000000000 (    0.00)
   CI-PROBLEM SOLVED
   DENSITIES MADE
   E(CAS)=    -1.156348218 Eh DE=    -0.000306625
   --- Energy gap subspaces: Ext-Act = -3.285   Act-Int = 0.600
   N(occ)=  1.96947 0.01341 0.00816 0.00394 0.00394 0.00016 0.00037 0.00012 0.00012 0.00010 0.00008 0.00008 0.00003 0.00000
   ||g|| =      0.016802613 Max(G)=    -0.011641511 Rot=34,0
   --- Orbital Update [SuperCI(PT)]
   --- Canonicalize Internal Space
   --- Canonicalize External Space
   --- SX_PT (Skipped TA=1 IT=0): ||X|| =      0.302708952 Max(X)(20,12) =     -0.257053235 
   --- SFit(Active Orbitals)

MACRO-ITERATION   3: 
   --- Inactive Energy E0 = 0.86974232 Eh
CI-ITERATION   0: 
    -1.156394163   0.000000000000 (    0.00)
   CI-PROBLEM SOLVED
   DENSITIES MADE
   E(CAS)=    -1.156394163 Eh DE=    -0.000045944
   --- Energy gap subspaces: Ext-Act = -4.237   Act-Int = 0.600
   N(occ)=  1.96885 0.01344 0.00843 0.00407 0.00407 0.00017 0.00039 0.00013 0.00013 0.00012 0.00009 0.00009 0.00002 0.00000
   ||g|| =      0.006250886 Max(G)=    -0.005291583 Rot=59,0
   --- Orbital Update [SuperCI(PT)]
   --- Canonicalize Internal Space
   --- Canonicalize External Space
   --- SX_PT (Skipped TA=1 IT=0): ||X|| =      0.185889405 Max(X)(15,12) =     -0.164286622 
   --- SFit(Active Orbitals)

MACRO-ITERATION   4: 
   --- Inactive Energy E0 = 0.86974232 Eh
CI-ITERATION   0: 
    -1.156400258   0.000000000000 (    0.00)
   CI-PROBLEM SOLVED
   DENSITIES MADE
   E(CAS)=    -1.156400258 Eh DE=    -0.000006095
   --- Energy gap subspaces: Ext-Act = -4.180   Act-Int = 0.600
   N(occ)=  1.96900 0.01343 0.00837 0.00404 0.00404 0.00017 0.00039 0.00013 0.00013 0.00012 0.00009 0.00009 0.00003 0.00000
   ||g|| =      0.003011205 Max(G)=    -0.002331194 Rot=34,0
   --- Orbital Update [SuperCI(PT)]
   --- Canonicalize Internal Space
   --- Canonicalize External Space
   --- SX_PT (Skipped TA=1 IT=0): ||X|| =      0.055495474 Max(X)(28,12) =     -0.034723066 
   --- SFit(Active Orbitals)

MACRO-ITERATION   5: 
   --- Inactive Energy E0 = 0.86974232 Eh
CI-ITERATION   0: 
    -1.156401787   0.000000000000 (    0.00)
   CI-PROBLEM SOLVED
   DENSITIES MADE
   E(CAS)=    -1.156401787 Eh DE=    -0.000001530
   --- Energy gap subspaces: Ext-Act = -5.117   Act-Int = 0.600
   N(occ)=  1.96889 0.01343 0.00844 0.00405 0.00405 0.00017 0.00039 0.00013 0.00013 0.00013 0.00009 0.00009 0.00002 0.00000
   ||g|| =      0.001850768 Max(G)=     0.001415572 Rot=34,0
   --- Orbital Update [SuperCI(PT)]
   --- Canonicalize Internal Space
[...]
  Default Parametrization           ... CAYLEY
  Act-Act rotations                 ... depends on algorithm used

  Note: SuperCI(PT) will ignore FreezeIE, FreezeAct and FreezeGrad. In general Default settings are encouraged.
        In conjunction with ShiftUp, ShiftDn or GradScaling the performance of SuperCI(PT) is less optimal.  

  MaxRot                            ... 2.00e-01 
  Max. no of vectors (DIIS)         ... 15
  DThresh (cut-off) metric          ... 1.00e-06
  Switch step at gradient           ...  3.00e-02 
  Switch step at iteration          ...        50   
  Switch step to                    ... SuperCI(PT)    

SCF-SETTINGS:
  Incremental                       ... on
  RIJCOSX approximation             ... off
  RI-JK approximation               ... off
  AO integral handling              ... DIRECT
  Integral Neglect Thresh           ...  2.50e-11
  Primitive cutoff TCut             ...  2.50e-12
  Energy convergence tolerance      ...  2.50e-08
  Orbital gradient convergence      ...  2.50e-04
  Max. number of iterations         ...        75  


FINAL ORBITALS:
  Active   Orbitals                 ... natural 
  Internal Orbitals                 ... canonical 
  External Orbitals                 ... canonical 

------------------
CAS-SCF ITERATIONS
------------------


MACRO-ITERATION   1: 
   --- Inactive Energy E0 = 0.02652169 Eh
CI-ITERATION   0: 
    -0.999966587   0.000000000000 (    0.00)
   CI-PROBLEM SOLVED
   DENSITIES MADE

                 <<<<<<<<<<<<<<<<<<INITIAL CI STATE CHECK>>>>>>>>>>>>>>>>>>

BLOCK  1 MULT= 1 NROOTS= 1 
ROOT   0:  E=      -0.9999665865 Eh
      0.50002 [     0]: 20000000000000
      0.49998 [    14]: 02000000000000

                 <<<<<<<<<<<<<<<<<<INITIAL CI STATE CHECK>>>>>>>>>>>>>>>>>>

   E(CAS)=    -0.999966587 Eh DE=     0.000000000
   --- Energy gap subspaces: Ext-Act = -2.219   Act-Int = 0.600
   N(occ)=  1.00004 0.99996 0.00000 0.00000 0.00000 0.00000 0.00000 0.00000 0.00000 0.00000 0.00000 0.00000 0.00000 0.00000
   ||g|| =      0.000216144 Max(G)=    -0.000133242 Rot=14,1
                     ---- THE CAS-SCF GRADIENT HAS CONVERGED ----
                            --- FINALIZING ORBITALS ---
                    ---- DOING ONE FINAL ITERATION FOR PRINTING ----
   --- Forming Natural Orbitals
   --- Canonicalize Internal Space
   --- Canonicalize External Space

MACRO-ITERATION   2: 
   --- Inactive Energy E0 = 0.02652169 Eh
   --- All densities will be recomputed
CI-ITERATION   0: 
    -0.999966587   0.000000000000 (    0.00)
   CI-PROBLEM SOLVED
   DENSITIES MADE
   E(CAS)=    -0.999966587 Eh DE=    -0.000000000
   --- Energy gap subspaces: Ext-Act = -2.235   Act-Int = 0.600
   N(occ)=  1.00004 0.99996 0.00000 0.00000 0.00000 0.00000 0.00000 0.00000 0.00000 0.00000 0.00000 0.00000 0.00000 0.00000
   ||g|| =      0.000216144 Max(G)=     0.000133242 Rot=14,1
--------------
CASSCF RESULTS
--------------

Final CASSCF energy       : -0.999966587 Eh     -27.2105 eV


---------------------------------------------
CAS-SCF STATES FOR BLOCK  1 MULT= 1 NROOTS= 1
---------------------------------------------

ROOT   0:  E=      -0.9999665865 Eh
      0.50002 [     0]: 20000000000000
      0.49998 [    14]: 02000000000000


--------------
DENSITY MATRIX
--------------

                  0          1          2          3          4          5    
      0       1.000042   0.000000  -0.000000   0.000000  -0.000000   0.000000
      1       0.000000   0.999958  -0.000000  -0.000000   0.000000  -0.000000
      2      -0.000000  -0.000000   0.000000  -0.000000   0.000000   0.000000
      3       0.000000  -0.000000  -0.000000   0.000000  -0.000000  -0.000000
      4      -0.000000   0.000000   0.000000  -0.000000   0.000000  -0.000000
      5       0.000000  -0.000000   0.000000  -0.000000  -0.000000   0.000000
      6       0.000000   0.000000  -0.000000   0.000000  -0.000000   0.000000
      7       0.000000   0.000000  -0.000000  -0.000000  -0.000000   0.000000
      8       0.000000  -0.000000   0.000000   0.000000  -0.000000   0.000000
      9      -0.000000   0.000000   0.000000  -0.000000   0.000000  -0.000000
     10       0.000000  -0.000000  -0.000000  -0.000000  -0.000000   0.000000
     11       0.000000  -0.000000   0.000000   0.000000  -0.000000  -0.000000
     12      -0.000000  -0.000000  -0.000000  -0.000000  -0.000000   0.000000
     13      -0.000000  -0.000000  -0.000000   0.000000   0.000000   0.000000
                  6          7          8          9         10         11    
      0       0.000000   0.000000   0.000000  -0.000000   0.000000   0.000000
      1       0.000000   0.000000  -0.000000   0.000000  -0.000000  -0.000000
      2      -0.000000  -0.000000   0.000000   0.000000  -0.000000   0.000000
      3       0.000000  -0.000000   0.000000  -0.000000  -0.000000   0.000000
      4      -0.000000  -0.000000  -0.000000   0.000000  -0.000000  -0.000000
      5       0.000000   0.000000   0.000000  -0.000000   0.000000  -0.000000
      6       0.000000  -0.000000  -0.000000   0.000000   0.000000  -0.000000
      7      -0.000000   0.000000   0.000000  -0.000000  -0.000000   0.000000
      8      -0.000000   0.000000   0.000000   0.000000   0.000000  -0.000000
      9       0.000000  -0.000000   0.000000   0.000000  -0.000000  -0.000000
     10       0.000000  -0.000000   0.000000  -0.000000   0.000000  -0.000000
     11      -0.000000   0.000000  -0.000000  -0.000000  -0.000000   0.000000
     12       0.000000  -0.000000   0.000000   0.000000  -0.000000  -0.000000
     13      -0.000000  -0.000000  -0.000000   0.000000  -0.000000   0.000000
                  12         13    
      0      -0.000000  -0.000000
      1      -0.000000  -0.000000
      2      -0.000000  -0.000000
      3      -0.000000   0.000000
      4      -0.000000   0.000000
      5       0.000000   0.000000
      6       0.000000  -0.000000
      7      -0.000000  -0.000000
      8       0.000000  -0.000000
      9       0.000000   0.000000
     10      -0.000000  -0.000000
     11      -0.000000   0.000000
     12       0.000000  -0.000000
     13      -0.000000   0.000000
Trace of the electron density:  2.000000

-----------------
ENERGY COMPONENTS
-----------------

One electron energy          :     -1.053009940 Eh         -28.6539 eV
Two electron energy          :      0.026521667 Eh           0.7217 eV
Nuclear repulsion energy     :      0.026521686 Eh           0.7217 eV
                               ----------------
                                   -0.999966587

Kinetic energy               :      1.000006055 Eh          27.2115 eV
Potential energy             :     -1.999972642 Eh         -54.4220 eV
Virial ratio                 :     -1.999960532 
                               ----------------
                                   -0.999966587

Core energy                  :      0.026521686 Eh        0.7217 eV


----------------------------
LOEWDIN REDUCED ACTIVE MOs  
----------------------------

                      0         1         2         3         4         5   
                  -0.18748  -0.18746   0.57661   0.57612   0.61299   0.61299
                   1.00004   0.99996   0.00000   0.00000   0.00000   0.00000
                  --------  --------  --------  --------  --------  --------
 0 H  s              50.0      50.0       0.5       0.1       0.0       0.0
 0 H  pz              0.0       0.0       0.0       0.0      16.0      32.9
 0 H  px              0.0       0.0      49.4      49.8       0.0       0.0
 0 H  py              0.0       0.0       0.0       0.0      32.9      16.0
 1 H  s              50.0      50.0       0.5       0.1       0.0       0.0
 1 H  pz              0.0       0.0       0.0       0.0      16.0      32.9
 1 H  px              0.0       0.0      49.4      49.8       0.0       0.0
 1 H  py              0.0       0.0       0.0       0.0      32.9      16.0

                      6         7         8         9        10        11   
                   1.20087   1.20087   1.15951   0.74610   2.29063   2.29063
                   0.00000   0.00000   0.00000   0.00000   0.00000   0.00000
                  --------  --------  --------  --------  --------  --------
 0 H  s               0.0       0.0      47.9      49.7       0.0       0.0
 0 H  pz             35.6      11.0       0.0       0.0       0.0       0.0
 0 H  py             11.0      35.6       0.0       0.0       0.0       0.0
 0 H  dz2             0.0       0.0       0.2       0.0      34.0       2.2
 0 H  dyz             0.0       0.0       0.0       0.0       2.9      45.3
 0 H  dx2y2           0.0       0.0       0.6       0.0      11.3       0.7
 1 H  s               0.0       0.0      47.9      49.7       0.0       0.0
 1 H  pz             35.6      11.0       0.0       0.0       0.0       0.0
 1 H  py             11.0      35.6       0.0       0.0       0.0       0.0
 1 H  dz2             0.0       0.0       0.2       0.0      34.0       2.2
 1 H  dyz             0.0       0.0       0.0       0.0       2.9      45.3
 1 H  dx2y2           0.0       0.0       0.6       0.0      11.3       0.7

                     12        13        14        15        16        17   
                   2.41656   2.76708   0.53180   0.82192   1.71443   1.71443
                   0.00000   0.00000   0.00000   0.00000   0.00000   0.00000
                  --------  --------  --------  --------  --------  --------
 0 H  s               1.0       1.1      49.4      49.4       0.0       0.0
 0 H  pz              0.0       0.0       0.0       0.0      11.5      23.6
 0 H  px             17.2      10.3       0.5       0.2       0.0       0.0
 0 H  py              0.0       0.0       0.0       0.0      23.6      11.5
 0 H  dz2             7.4       9.0       0.0       0.1       0.0       0.0
 0 H  dxz             0.0       0.0       0.0       0.0       4.9      10.0
 0 H  dx2y2          22.3      27.1       0.0       0.3       0.0       0.0
 0 H  dxy             0.0       0.0       0.0       0.0      10.0       4.9
 1 H  s               1.0       1.1      49.4      49.4       0.0       0.0
 1 H  pz              0.0       0.0       0.0       0.0      11.5      23.6
 1 H  px             17.2      10.3       0.5       0.2       0.0       0.0
 1 H  py              0.0       0.0       0.0       0.0      23.6      11.5
 1 H  dz2             7.4       9.0       0.0       0.1       0.0       0.0
 1 H  dxz             0.0       0.0       0.0       0.0       4.9      10.0
 1 H  dx2y2          22.3      27.1       0.0       0.3       0.0       0.0
 1 H  dxy             0.0       0.0       0.0       0.0      10.0       4.9


-------------------------------------------------------------
 Forming the transition density       ... done in 0.003096 sec
-------------------------------------------------------------



==========================================
CASSCF UV, CD spectra and dipole moments
==========================================
-------------------
ABSORPTION SPECTRUM
-------------------

Center of mass           = ( 18.8525,  0.0000,  0.0000)
Nuclear contribution to the dipole moment =     0.000000,    0.000000,    0.000000 au

Calculating the dipole integrals                  ... done
Transforming integrals                            ... done
Calculating the Linear Momentum integrals         ... done
Transforming integrals                            ... done
Calculating the Angular Momentum integrals        ... done
Transforming integrals                            ... done

Ground state mult:    1
Ground state block:   0
Ground state root:    0


------------------------------------------------------------------------------
                                 DIPOLE MOMENTS
------------------------------------------------------------------------------
  Root  Block           TX        TY        TZ           |T|
                      (Debye)   (Debye)   (Debye)      (Debye)
------------------------------------------------------------------------------
    0    0            0.00000   0.00000  -0.00000      0.00000

--------------
CASSCF TIMINGS
--------------

Total time                       ...        0.4 sec
Sum of individual times          ...        0.3 sec ( 73.1%)

Calculation of AO operators
   F(Core) operator              ...        0.0 sec (  0.9%)
   G(Act) operator               ...        0.0 sec (  5.8%)
   J(AO) operators               ...        0.0 sec (  0.0%)
Calculation of MO transformed quantities
   J(MO) operators               ...        0.2 sec ( 42.9%)
   (pq|rs) integrals             ...        0.0 sec (  0.0%)
   AO->MO one electron integrals ...        0.0 sec (  0.1%)
Configuration interaction steps
   CI-setup phase                ...        0.0 sec (  0.3%)
   CI-solution phase             ...        0.1 sec ( 14.9%)
   Generation of densities       ...        0.0 sec (  3.4%)
Orbital improvement steps
   Orbital gradient              ...        0.0 sec (  3.2%)
Properties                       ...        0.0 sec (  1.7%)
   SOC integral calculation      ...        0.0 sec (  0.0%)
   SSC RMEs (incl. integrals)    ...        0.0 sec (  0.0%)
   SOC RMEs                      ...        0.0 sec (  0.0%)

-------------------------   --------------------
FINAL SINGLE POINT ENERGY        -0.999966586526
-------------------------   --------------------

Storing actual gbw-file in H2_0_1_CASSCF-2-14_def2-qzvpp.sp.020.gbw ... done

                            ***************************************
                            *     ORCA property calculations      *
                            ***************************************

                                    ---------------------
                                    Active property flags
                                    ---------------------
   (+) Dipole Moment


------------------------------------------------------------------------------
                       ORCA ELECTRIC PROPERTIES CALCULATION
------------------------------------------------------------------------------

Dipole Moment Calculation                       ... on
Quadrupole Moment Calculation                   ... off
Polarizability Calculation                      ... off
GBWName                                         ... H2_0_1_CASSCF-2-14_def2-qzvpp.sp.gbw
Electron density file                           ... H2_0_1_CASSCF-2-14_def2-qzvpp.sp.scfp
The origin for moment calculation is the CENTER OF MASS  = (18.852497,  0.000000  0.000000)

-------------
DIPOLE MOMENT
-------------
                                X             Y             Z
Electronic contribution:      0.00000       0.00000      -0.00000
Nuclear contribution   :     -0.00000       0.00000       0.00000
                        -----------------------------------------
Total Dipole Moment    :      0.00000       0.00000      -0.00000
                        -----------------------------------------
Magnitude (a.u.)       :      0.00000
Magnitude (Debye)      :      0.00000



--------------------
Rotational spectrum 
--------------------
 
Rotational constants in cm-1:     0.000000     0.084017     0.084017 
Rotational constants in MHz :     0.000000  2518.761623  2518.761623 

 Dipole components along the rotational axes: 
x,y,z [a.u.] :     0.000000     0.000000    -0.000000 
x,y,z [Debye]:     0.000000     0.000000    -0.000000 

 
                              **** TRAJECTORY DONE ***

                         SUMMARY OF THE CALCULATED SURFACE

------------------
TRAJECTORY RESULTS
------------------

Column   1: RHH

The Calculated Surface using the 'Actual Energy'
   0.50118723  -1.10276702
   0.60842987  -1.15640246
   0.73861998  -1.17250161
   0.89666781  -1.16108756
   1.08853427  -1.13149881
   1.32145577  -1.09286826
   1.60421716  -1.05428833
   1.94748304  -1.02443068
   2.36419999  -1.00787516
   2.87008485  -1.00173944
   3.48421754  -1.00024301
   4.22976062  -1.00000042
   5.13483291  -0.99997174
   6.23357002  -0.99996787
   7.56741181  -0.99996696
   9.18666532  -0.99996670
  11.15240214  -0.99996662
  13.53876180  -0.99996660
  16.43574799  -0.99996659
  19.95262315  -0.99996659

                        *******************************
                        *   FIT OF THE ACT-ENERGY PES *
                        *******************************
-------------------------------
POTENTIAL ENERGY SURFACE =   0
-------------------------------

Minimum found after 17 iterations
Equilibrium distance and its energy from the interpolated PES:
  Re      =   0.72665 Angstroem  (  1.37317 Bohr)
  E(Re)   =    -1.172581 Eh 
  dE/dR   = -1.084e-09 (-1.144e-01 CHEB)
  d2E/dR2 =    0.340288 (   0.794709 CHEB) (  -0.012964 NUM)
  d3E/dR3 =   -4.136575 (  -2.987165 CHEB)

Spectroscopic constants:
  we =    4240.8 cm**-1 (based on SPLINE)
  we =    6480.7 cm**-1 (based on CHEB)
  we =      -nan cm**-1 (based on NUM)

Performing Morse fit ...
Morse-Fit Results:
 Te(adiabatic)   =    -356.5 cm**-1         = -0.044 eV
 d2E/dR**2 (Morse)=      0.408785547 
 d3E/dR**3 (Morse)=     -1.325274435 
 d4E/dR**4 (Morse)=      3.341732161 
 E0               =     -1.174204998 Eh  RMS=6.59e-07
 Re               =   0.74380 Angstroem      =  1.40557 Bohr RMS=1.17e-05)
 De(Morse)        =   4.76253 eV             =  38412.4 cm**-1 RMS=1.24e-06
 D0(Morse)        =   4.47439 eV
 beta             =   1.08066 au          RMS=1.53e-05
 we               =   4648.0 cm**-1
 wexe             =    140.5 cm**-1
 Displacement   =    0.0171 Angstroem      =  0.03241 Bohr

The Calculated Surface using the SCF energy
   0.50118723  -1.10276702
   0.60842987  -1.15640246
   0.73861998  -1.17250161
   0.89666781  -1.16108756
   1.08853427  -1.13149881
   1.32145577  -1.09286826
   1.60421716  -1.05428833
   1.94748304  -1.02443068
   2.36419999  -1.00787516
   2.87008485  -1.00173944
   3.48421754  -1.00024301
   4.22976062  -1.00000042
   5.13483291  -0.99997174
   6.23357002  -0.99996787
   7.56741181  -0.99996696
   9.18666532  -0.99996670
  11.15240214  -0.99996662
  13.53876180  -0.99996660
  16.43574799  -0.99996659
  19.95262315  -0.99996659

                        *******************************
                        *       FIT OF THE SCF PES    *
                        *******************************
-------------------------------
POTENTIAL ENERGY SURFACE =   0
-------------------------------

Minimum found after 17 iterations
Equilibrium distance and its energy from the interpolated PES:
  Re      =   0.72665 Angstroem  (  1.37317 Bohr)
  E(Re)   =    -1.172581 Eh 
  dE/dR   = -1.084e-09 (-1.144e-01 CHEB)
  d2E/dR2 =    0.340288 (   0.794709 CHEB) (  -0.012964 NUM)
  d3E/dR3 =   -4.136575 (  -2.987165 CHEB)

Spectroscopic constants:
  we =    4240.8 cm**-1 (based on SPLINE)
  we =    6480.7 cm**-1 (based on CHEB)
  we =      -nan cm**-1 (based on NUM)

Performing Morse fit ...
Morse-Fit Results:
 Te(adiabatic)   =    -356.5 cm**-1         = -0.044 eV
 d2E/dR**2 (Morse)=      0.408785547 
 d3E/dR**3 (Morse)=     -1.325274435 
 d4E/dR**4 (Morse)=      3.341732161 
 E0               =     -1.174204998 Eh  RMS=6.59e-07
 Re               =   0.74380 Angstroem      =  1.40557 Bohr RMS=1.17e-05)
 De(Morse)        =   4.76253 eV             =  38412.4 cm**-1 RMS=1.24e-06
 D0(Morse)        =   4.47439 eV
 beta             =   1.08066 au          RMS=1.53e-05
 we               =   4648.0 cm**-1
 wexe             =    140.5 cm**-1
 Displacement   =    0.0171 Angstroem      =  0.03241 Bohr


Timings for individual modules:

Sum of individual times         ...      104.086 sec (=   1.735 min)
GTO integral calculation        ...        5.094 sec (=   0.085 min)   4.9 %
SCF iterations                  ...        0.995 sec (=   0.017 min)   1.0 %
CASSCF iterations               ...       97.997 sec (=   1.633 min)  94.2 %
                             ****ORCA TERMINATED NORMALLY****
TOTAL RUN TIME: 0 days 0 hours 1 minutes 46 seconds 338 msec
