
                                 *****************
                                 * O   R   C   A *
                                 *****************

           --- An Ab Initio, DFT and Semiempirical electronic structure package ---

                  #######################################################
                  #                        -***-                        #
                  #          Department of theory and spectroscopy      #
                  #               Directorship: Frank Neese             #
                  #        Max Planck Institute fuer Kohlenforschung    #
                  #                Kaiser Wilhelm Platz 1               #
                  #                 D-45470 Muelheim/Ruhr               #
                  #                      Germany                        #
                  #                                                     #
                  #                  All rights reserved                #
                  #                        -***-                        #
                  #######################################################


                         Program Version 4.2.0 -  RELEASE  -


 With contributions from (in alphabetic order):
   Daniel Aravena         : Magnetic Suceptibility
   Michael Atanasov       : Ab Initio Ligand Field Theory (pilot matlab implementation)
   Alexander A. Auer      : GIAO ZORA, VPT2
   Ute Becker             : Parallelization
   Giovanni Bistoni       : ED, misc. LED, open-shell LED, HFLED
   Martin Brehm           : Molecular dynamics
   Dmytro Bykov           : SCF Hessian
   Vijay G. Chilkuri      : MRCI spin determinant printing, contributions to CSF-ICE
   Dipayan Datta          : RHF DLPNO-CCSD density
   Achintya Kumar Dutta   : EOM-CC, STEOM-CC
   Dmitry Ganyushin       : Spin-Orbit,Spin-Spin,Magnetic field MRCI
   Miquel Garcia          : C-PCM Hessian, Gaussian charge scheme
   Yang Guo               : DLPNO-NEVPT2, CIM, IAO-localization
   Andreas Hansen         : Spin unrestricted coupled pair/coupled cluster methods
   Benjamin Helmich-Paris : CASSCF linear response (MC-RPA)
   Lee Huntington         : MR-EOM, pCC
   Robert Izsak           : Overlap fitted RIJCOSX, COSX-SCS-MP3, EOM
   Christian Kollmar      : KDIIS, OOCD, Brueckner-CCSD(T), CCSD density
   Simone Kossmann        : Meta GGA functionals, TD-DFT gradient, OOMP2, MP2 Hessian
   Martin Krupicka        : AUTO-CI
   Lucas Lang             : DCDCAS
   Dagmar Lenk            : GEPOL surface, SMD
   Dimitrios Liakos       : Extrapolation schemes; Compound Job, initial MDCI parallelization
   Dimitrios Manganas     : Further ROCIS development; embedding schemes
   Dimitrios Pantazis     : SARC Basis sets
   Taras Petrenko         : DFT Hessian,TD-DFT gradient, ASA, ECA, R-Raman, ABS, FL, XAS/XES, NRVS
   Peter Pinski           : DLPNO-MP2, DLPNO-MP2 Gradient
   Christoph Reimann      : Effective Core Potentials
   Marius Retegan         : Local ZFS, SOC
   Christoph Riplinger    : Optimizer, TS searches, QM/MM, DLPNO-CCSD(T), (RO)-DLPNO pert. Triples
   Tobias Risthaus        : Range-separated hybrids, TD-DFT gradient, RPA, STAB
   Michael Roemelt        : Original ROCIS implementation
   Masaaki Saitow         : Open-shell DLPNO-CCSD energy and density
   Barbara Sandhoefer     : DKH picture change effects
   Avijit Sen             : IP-ROCIS
   Kantharuban Sivalingam : CASSCF convergence, NEVPT2, FIC-MRCI
   Bernardo de Souza      : ESD, SOC TD-DFT
   Georgi Stoychev        : AutoAux, RI-MP2 NMR
   Willem Van den Heuvel  : Paramagnetic NMR
   Boris Wezisla          : Elementary symmetry handling
   Frank Wennmohs         : Technical directorship


 We gratefully acknowledge several colleagues who have allowed us to
 interface, adapt or use parts of their codes:
   Stefan Grimme, W. Hujo, H. Kruse,             : VdW corrections, initial TS optimization,
                  C. Bannwarth                     DFT functionals, gCP, sTDA/sTD-DF
   Ed Valeev, F. Pavosevic, A. Kumar             : LibInt (2-el integral package), F12 methods
   Garnet Chan, S. Sharma, J. Yang, R. Olivares  : DMRG
   Ulf Ekstrom                                   : XCFun DFT Library
   Mihaly Kallay                                 : mrcc  (arbitrary order and MRCC methods)
   Andreas Klamt, Michael Diedenhofen            : otool_cosmo (COSMO solvation model)
   Jiri Pittner, Ondrej Demel                    : Mk-CCSD
   Frank Weinhold                                : gennbo (NPA and NBO analysis)
   Christopher J. Cramer and Donald G. Truhlar   : smd solvation model
   Lars Goerigk                                  : TD-DFT with DH, B97 family of functionals
   V. Asgeirsson, H. Jonsson                     : NEB implementation
   FAccTs GmbH                                   : IRC, NEB, NEB-TS, Multilevel, MM, QM/MM, CI optimization
   S Lehtola, MJT Oliveira, MAL Marques          : LibXC Library


 Your calculation uses the libint2 library for the computation of 2-el integrals
 For citations please refer to: http://libint.valeyev.net

 Your ORCA version has been built with support for libXC version: 4.2.3
 For citations please refer to: https://tddft.org/programs/libxc/

 This ORCA versions uses:
   CBLAS   interface :  Fast vector & matrix operations
   LAPACKE interface :  Fast linear algebra routines
   SCALAPACK package :  Parallel linear algebra routines


----- Orbital basis set information -----
Your calculation utilizes the basis: def2-QZVPP
   F. Weigend and R. Ahlrichs, Phys. Chem. Chem. Phys. 7, 3297 (2005).

================================================================================
                                        WARNINGS
                       Please study these warnings very carefully!
================================================================================


INFO   : the flag for use of LIBINT has been found!

================================================================================
                                       INPUT FILE
================================================================================
NAME = H2_0_1_CASSCF-2-6_def2-qzvpp.sp.inp
|  1> !rhf def2-qzvpp tightscf 
|  2> !normalprint
|  3> 
|  4> %paras
|  5> #  rHH [19.952623149688797 16.43574799372698 13.538761800225439 11.152402139117903 9.1866653175426 7.567411809920191 6.233570019315557 5.134832907437553 4.229760619613384 3.4842175435383975 2.870084854071569 2.3641999865500756 1.9474830399087562 1.6042171611153242 1.32145576997553 1.088534267260644 0.8966678097917788 0.7386199822079362 0.6084298690766428 0.5011872336272722]
|  6>   rHH [0.5011872336272722 0.6084298690766428 0.7386199822079362 0.8966678097917788 1.088534267260644 1.32145576997553 1.6042171611153242 1.9474830399087562 2.3641999865500756 2.870084854071569 3.4842175435383975 4.229760619613384 5.134832907437553 6.233570019315557 7.567411809920191 9.1866653175426 11.152402139117903 13.538761800225439 16.43574799372698 19.952623149688797]
|  7> end
|  8> 
|  9> %scf
| 10>   maxiter 500
| 11> end
| 12> 
| 13> %casscf
| 14>   nel 2
| 15>   norb 6
| 16> end
| 17> 
| 18> *int 0 1
| 19> H 0 0 0 0 0 0
| 20> H 1 0 0 {rHH} 0 0
| 21> *
| 22> 
| 23>                          ****END OF INPUT****
================================================================================

                       ******************************
                       * Parameter Scan Calculation *
                       ******************************

Trajectory settings:
    -> SCF surface will be mapped

There are 1 parameter(s) to be scanned
           RHH: user defined at 20 points
There will be   20 energy evaluations


         *************************************************************
                                TRAJECTORY STEP   1
                RHH  :   0.50118723
         *************************************************************
---------------------------------
CARTESIAN COORDINATES (ANGSTROEM)
---------------------------------
  H      0.000000    0.000000    0.000000
  H      0.501187    0.000000    0.000000

----------------------------
CARTESIAN COORDINATES (A.U.)
----------------------------
  NO LB      ZA    FRAG     MASS         X           Y           Z
   0 H     1.0000    0     1.008    0.000000    0.000000    0.000000
   1 H     1.0000    0     1.008    0.947107    0.000000    0.000000

--------------------------------
INTERNAL COORDINATES (ANGSTROEM)
--------------------------------
 H      0   0   0     0.000000000000     0.00000000     0.00000000
 H      1   0   0     0.501187233627     0.00000000     0.00000000

---------------------------
INTERNAL COORDINATES (A.U.)
---------------------------
 H      0   0   0     0.000000000000     0.00000000     0.00000000
 H      1   0   0     0.947106613373     0.00000000     0.00000000

---------------------
BASIS SET INFORMATION
---------------------
There are 1 groups of distinct atoms

 Group   1 Type H   : 7s3p2d1f contracted to 4s3p2d1f pattern {4111/111/11/1}

Atom   0H    basis set group =>   1
Atom   1H    basis set group =>   1
------------------------------------------------------------------------------
                           ORCA GTO INTEGRAL CALCULATION
------------------------------------------------------------------------------

                         BASIS SET STATISTICS AND STARTUP INFO

 # of primitive gaussian shells          ...   26
 # of primitive gaussian functions       ...   66
 # of contracted shells                  ...   20
 # of contracted basis functions         ...   60
 Highest angular momentum                ...    3
 Maximum contraction depth               ...    4
 Integral package used                   ... LIBINT
 Integral threshhold            Thresh   ...  2.500e-11
 Primitive cut-off              TCut     ...  2.500e-12


------------------------------ INTEGRAL EVALUATION ----------------------------


 * One electron integrals 
 Pre-screening matrix                    ... done
 Shell pair data                         ... done (   0.000 sec)

-------------------------------------------------------------------------------
                                 ORCA SCF
-------------------------------------------------------------------------------

------------
SCF SETTINGS
------------
Hamiltonian:
 Ab initio Hamiltonian  Method          .... Hartree-Fock(GTOs)


General Settings:
 Integral files         IntName         .... H2_0_1_CASSCF-2-6_def2-qzvpp.sp
 Hartree-Fock type      HFTyp           .... CASSCF
 Total Charge           Charge          ....    0
 Multiplicity           Mult            ....    1
 Number of Electrons    NEL             ....    2
 Basis Dimension        Dim             ....   60
 Nuclear Repulsion      ENuc            ....      1.0558473417 Eh


Diagonalization of the overlap matrix:
Smallest eigenvalue                        ... 5.708e-05
Time for diagonalization                   ...    0.138 sec
Threshold for overlap eigenvalues          ... 1.000e-08
Number of eigenvalues below threshold      ... 0
Time for construction of square roots      ...    0.003 sec
Total time needed                          ...    0.141 sec

-------------------
DFT GRID GENERATION
-------------------

General Integration Accuracy     IntAcc      ...  4.340
Radial Grid Type                 RadialGrid  ... Gauss-Chebyshev
Angular Grid (max. acc.)         AngularGrid ... Lebedev-110
Angular grid pruning method      GridPruning ... 3 (G Style)
Weight generation scheme         WeightScheme... Becke
Basis function cutoff            BFCut       ...    1.0000e-11
Integration weight cutoff        WCut        ...    1.0000e-14
Grids for H and He will be reduced by one unit

# of grid points (after initial pruning)     ...   1588 (   0.0 sec)
# of grid points (after weights+screening)   ...   1560 (   0.0 sec)
nearest neighbour list constructed           ...    0.0 sec
Grid point re-assignment to atoms done       ...    0.0 sec
Grid point division into batches done        ...    0.0 sec
Reduced shell lists constructed in    0.0 sec

Total number of grid points                  ...     1560
Total number of batches                      ...       26
Average number of points per batch           ...       60
Average number of grid points per atom       ...      780
Average number of shells per batch           ...    19.15 (95.74%)
Average number of basis functions per batch  ...    57.44 (95.74%)
Average number of large shells per batch     ...    18.78 (98.07%)
Average number of large basis fcns per batch ...    56.19 (97.81%)
Maximum spatial batch extension              ...  15.26, 21.59, 21.59 au
Average spatial batch extension              ...   4.46,  7.66,  7.77 au

Time for grid setup =    0.007 sec

------------------------------
INITIAL GUESS: MODEL POTENTIAL
------------------------------
Loading Hartree-Fock densities                     ... done
Calculating cut-offs                               ... done
Setting up the integral package                    ... done
Initializing the effective Hamiltonian             ... done
Starting the Coulomb interaction                   ... done (   0.0 sec)
Reading the grid                                   ... done
Mapping shells                                     ... done
Starting the XC term evaluation                    ... done (   0.0 sec)
Transforming the Hamiltonian                       ... done (   0.0 sec)
Diagonalizing the Hamiltonian                      ... done (   0.0 sec)
Back transforming the eigenvectors                 ... done (   0.0 sec)
Now organizing SCF variables                       ... done
                      ------------------
                      INITIAL GUESS DONE (   0.1 sec)
                      ------------------


 ... the calculation is a CASSCF calculation -I'm leaving here GOOD LUCK!!!

-------------------------------------------------------------------------------
                              ORCA-CASSCF
-------------------------------------------------------------------------------

Setting up the integral package       ... done
Building the CAS space                ... done (21 configurations for Mult=1)

SYSTEM-SPECIFIC SETTINGS:
Number of active electrons          ...    2
Number of active orbitals           ...    6
Total number of electrons           ...    2
Total number of orbitals            ...   60

Determined orbital ranges:
   Internal       0 -   -1 (   0 orbitals)
   Active         0 -    5 (   6 orbitals)
   External       6 -   59 (  54 orbitals)
Number of rotation parameters      ...    324

CI-STEP:
CI strategy                         ... General CI
Number of multiplicity blocks       ...    1
BLOCK  1 WEIGHT=   1.0000
  Multiplicity                      ...    1
  #(Configurations)                 ...   21
  #(CSFs)                           ...   21
  #(Roots)                          ...    1
    ROOT=0 WEIGHT=    1.000000

  PrintLevel                        ...    1
  N(GuessMat)                       ...       512
  MaxDim(CI)                        ...        10
  MaxIter(CI)                       ...        64
  Energy Tolerance CI               ...  2.50e-09
  Residual Tolerance CI             ...  2.50e-09
  Shift(CI)                         ...  1.00e-04

INTEGRAL-TRANSFORMATION-STEP:
  Algorithm                         ... EXACT

ORBITAL-IMPROVEMENT-STEP:
  Algorithm                         ... SuperCI(PT)
  Default Parametrization           ... CAYLEY
  Act-Act rotations                 ... depends on algorithm used

  Note: SuperCI(PT) will ignore FreezeIE, FreezeAct and FreezeGrad. In general Default settings are encouraged.
        In conjunction with ShiftUp, ShiftDn or GradScaling the performance of SuperCI(PT) is less optimal.  

  MaxRot                            ... 2.00e-01 
  Max. no of vectors (DIIS)         ... 15
  DThresh (cut-off) metric          ... 1.00e-06
  Switch step at gradient           ...  3.00e-02 
  Switch step at iteration          ...        50   
  Switch step to                    ... SuperCI(PT)    

SCF-SETTINGS:
  Incremental                       ... on
  RIJCOSX approximation             ... off
  RI-JK approximation               ... off
  AO integral handling              ... DIRECT
  Integral Neglect Thresh           ...  2.50e-11
  Primitive cutoff TCut             ...  2.50e-12
  Energy convergence tolerance      ...  2.50e-08
  Orbital gradient convergence      ...  2.50e-04
  Max. number of iterations         ...        75  


FINAL ORBITALS:
  Active   Orbitals                 ... natural 
  Internal Orbitals                 ... canonical 
  External Orbitals                 ... canonical 

------------------
CAS-SCF ITERATIONS
------------------


MACRO-ITERATION   1: 
   --- Inactive Energy E0 = 1.05584734 Eh
CI-ITERATION   0: 
    -1.071672254   0.000000000000 (    0.00)
   CI-PROBLEM SOLVED
   DENSITIES MADE

                 <<<<<<<<<<<<<<<<<<INITIAL CI STATE CHECK>>>>>>>>>>>>>>>>>>

BLOCK  1 MULT= 1 NROOTS= 1 
ROOT   0:  E=      -1.0716722539 Eh
      0.98845 [     0]: 200000
      0.00591 [     2]: 101000

                 <<<<<<<<<<<<<<<<<<INITIAL CI STATE CHECK>>>>>>>>>>>>>>>>>>

   E(CAS)=    -1.071672254 Eh DE=     0.000000000
   --- Energy gap subspaces: Ext-Act = 0.283   Act-Int = 0.600
   N(occ)=  1.98282 0.00235 0.00740 0.00236 0.00236 0.00271
   ||g|| =      0.282634125 Max(G)=     0.181776276 Rot=24,0
   --- Orbital Update [SuperCI(PT)]
   --- Canonicalize Internal Space
   --- Canonicalize External Space
   --- SX_PT (Skipped TA=1 IT=0): ||X|| =      1.121192423 Max(X)(9,2) =     -0.633486050 
   --- SFit(Active Orbitals)

MACRO-ITERATION   2: 
   --- Inactive Energy E0 = 1.05584734 Eh
CI-ITERATION   0: 
    -1.088837480   0.000000000000 (    0.00)
   CI-PROBLEM SOLVED
   DENSITIES MADE
   E(CAS)=    -1.088837480 Eh DE=    -0.017165226
   --- Energy gap subspaces: Ext-Act = 0.113   Act-Int = 0.600
   N(occ)=  1.96537 0.00510 0.01537 0.00411 0.00411 0.00595
   ||g|| =      0.130860616 Max(G)=    -0.115070087 Rot=9,0
   --- Orbital Update [SuperCI(PT)]
   --- Canonicalize Internal Space
   --- Canonicalize External Space
   --- SX_PT (Skipped TA=1 IT=0): ||X|| =      0.584243011 Max(X)(9,2) =     -0.300419317 
   --- SFit(Active Orbitals)

MACRO-ITERATION   3: 
   --- Inactive Energy E0 = 1.05584734 Eh
CI-ITERATION   0: 
    -1.099084978   0.000000000000 (    0.00)
   CI-PROBLEM SOLVED
   DENSITIES MADE
   E(CAS)=    -1.099084978 Eh DE=    -0.010247498
   --- Energy gap subspaces: Ext-Act = -0.414   Act-Int = 0.600
   N(occ)=  1.96709 0.00418 0.01478 0.00429 0.00429 0.00536
   ||g|| =      0.059193338 Max(G)=    -0.048465898 Rot=9,0
   --- Orbital Update [SuperCI(PT)]
   --- Canonicalize Internal Space
   --- Canonicalize External Space
   --- SX_PT (Skipped TA=1 IT=0): ||X|| =      0.142500486 Max(X)(10,2) =      0.100502621 
   --- SFit(Active Orbitals)

MACRO-ITERATION   4: 
   --- Inactive Energy E0 = 1.05584734 Eh
CI-ITERATION   0: 
    -1.099925616   0.000000000000 (    0.00)
   CI-PROBLEM SOLVED
   DENSITIES MADE
   E(CAS)=    -1.099925616 Eh DE=    -0.000840638
   --- Energy gap subspaces: Ext-Act = -0.469   Act-Int = 0.600
   N(occ)=  1.96781 0.00431 0.01403 0.00419 0.00419 0.00546
   ||g|| =      0.018746145 Max(G)=    -0.012728133 Rot=9,0
   --- Orbital Update [SuperCI(PT)]
   --- Canonicalize Internal Space
   --- Canonicalize External Space
   --- SX_PT (Skipped TA=1 IT=0): ||X|| =      0.044255492 Max(X)(6,2) =      0.024184539 
   --- SFit(Active Orbitals)

MACRO-ITERATION   5: 
   --- Inactive Energy E0 = 1.05584734 Eh
CI-ITERATION   0: 
    -1.100022620   0.000000000000 (    0.00)
   CI-PROBLEM SOLVED
   DENSITIES MADE
   E(CAS)=    -1.100022620 Eh DE=    -0.000097003
   --- Energy gap subspaces: Ext-Act = -0.542   Act-Int = 0.600
   N(occ)=  1.96895 0.00429 0.01323 0.00404 0.00404 0.00545
   ||g|| =      0.008282791 Max(G)=     0.006683305 Rot=24,0
   --- Orbital Update [SuperCI(PT)]
   --- Canonicalize Internal Space
   --- Canonicalize External Space
   --- SX_PT (Skipped TA=1 IT=0): ||X|| =      0.014055449 Max(X)(6,2) =     -0.010341463 
   --- SFit(Active Orbitals)

MACRO-ITERATION   6: 
   --- Inactive Energy E0 = 1.05584734 Eh
CI-ITERATION   0: 
    -1.100027971   0.000000000000 (    0.00)
   CI-PROBLEM SOLVED
   DENSITIES MADE
   E(CAS)=    -1.100027971 Eh DE=    -0.000005351
   --- Energy gap subspaces: Ext-Act = -0.534   Act-Int = 0.600
   N(occ)=  1.96890 0.00430 0.01321 0.00406 0.00406 0.00547
   ||g|| =      0.002588873 Max(G)=    -0.002267392 Rot=9,0
   --- Orbital Update [SuperCI(PT)]
   --- Canonicalize Internal Space
   --- Canonicalize External Space
   --- SX_PT (Skipped TA=1 IT=0): ||X|| =      0.008446471 Max(X)(6,2) =      0.006031035 
   --- SFit(Active Orbitals)

MACRO-ITERATION   7: 
   --- Inactive Energy E0 = 1.05584734 Eh
CI-ITERATION   0: 
    -1.100030666   0.000000000000 (    0.00)
   CI-PROBLEM SOLVED
   DENSITIES MADE
   E(CAS)=    -1.100030666 Eh DE=    -0.000002694
   --- Energy gap subspaces: Ext-Act = -0.542   Act-Int = 0.600
   N(occ)=  1.96903 0.00431 0.01310 0.00404 0.00404 0.00548
   ||g|| =      0.000380362 Max(G)=     0.000310675 Rot=24,0
   --- Orbital Update [SuperCI(PT)]
   --- Canonicalize Internal Space
   --- Canonicalize External Space
   --- SX_PT (Skipped TA=1 IT=0): ||X|| =      0.000315543 Max(X)(23,2) =     -0.000172907 
   --- SFit(Active Orbitals)

MACRO-ITERATION   8: 
   --- Inactive Energy E0 = 1.05584734 Eh
CI-ITERATION   0: 
    -1.100030680   0.000000000000 (    0.00)
   CI-PROBLEM SOLVED
   DENSITIES MADE
   E(CAS)=    -1.100030680 Eh DE=    -0.000000014
   --- Energy gap subspaces: Ext-Act = -0.543   Act-Int = 0.600
   N(occ)=  1.96904 0.00431 0.01309 0.00404 0.00404 0.00548
   ||g|| =      0.000016843 Max(G)=     0.000008109 Rot=48,0
                     ---- THE CAS-SCF ENERGY   HAS CONVERGED ----
                     ---- THE CAS-SCF GRADIENT HAS CONVERGED ----
                            --- FINALIZING ORBITALS ---
                    ---- DOING ONE FINAL ITERATION FOR PRINTING ----
   --- Forming Natural Orbitals
   --- Canonicalize Internal Space
   --- Canonicalize External Space

MACRO-ITERATION   9: 
   --- Inactive Energy E0 = 1.05584734 Eh
   --- All densities will be recomputed
CI-ITERATION   0: 
    -1.100030680   0.000000000000 (    0.00)
   CI-PROBLEM SOLVED
   DENSITIES MADE
   E(CAS)=    -1.100030680 Eh DE=     0.000000000
   --- Energy gap subspaces: Ext-Act = -0.837   Act-Int = 0.600
   N(occ)=  1.97527 0.00979 0.00686 0.00404 0.00404 0.00000
   ||g|| =      0.000016843 Max(G)=     0.000009405 Rot=10,0
--------------
CASSCF RESULTS
--------------

Final CASSCF energy       : -1.100030680 Eh     -29.9334 eV

----------------
ORBITAL ENERGIES
----------------

  NO   OCC          E(Eh)            E(eV) 
   0   1.9753      -0.674435       -18.3523 
   1   0.0098       1.021417        27.7942 
   2   0.0069       1.134180        30.8626 
   3   0.0040       1.276312        34.7302 
   4   0.0040       1.276312        34.7302 
   5   0.0000       0.199981         5.4418 
   6   0.0000       0.438988        11.9455 
   7   0.0000       0.778539        21.1851 
   8   0.0000       0.799813        21.7640 
   9   0.0000       0.799813        21.7640 
  10   0.0000       0.849610        23.1191 
  11   0.0000       1.575690        42.8767 
  12   0.0000       1.575690        42.8767 
  13   0.0000       1.728783        47.0426 
  14   0.0000       2.000279        54.4304 
  15   0.0000       2.000279        54.4304 
  16   0.0000       2.221317        60.4451 
  17   0.0000       2.221317        60.4451 
  18   0.0000       2.508700        68.2652 
  19   0.0000       2.558393        69.6174 
  20   0.0000       2.558393        69.6174 
  21   0.0000       2.610903        71.0463 
  22   0.0000       2.610903        71.0463 
  23   0.0000       2.709284        73.7234 
  24   0.0000       2.755959        74.9935 
  25   0.0000       3.832344       104.2834 
  26   0.0000       4.203156       114.3737 
  27   0.0000       4.203156       114.3737 
  28   0.0000       5.776367       157.1829 
  29   0.0000       5.776367       157.1829 
  30   0.0000       6.063906       165.0073 
  31   0.0000       6.802047       185.0931 
  32   0.0000       6.875402       187.0892 
  33   0.0000       6.875402       187.0892 
  34   0.0000       6.902895       187.8373 
  35   0.0000       6.902895       187.8373 
  36   0.0000       7.017653       190.9601 
  37   0.0000       7.017653       190.9601 
  38   0.0000       7.110978       193.4995 
  39   0.0000       7.110978       193.4995 
  40   0.0000       7.119301       193.7260 
  41   0.0000       7.119301       193.7260 
  42   0.0000       7.230989       196.7652 
  43   0.0000       7.230989       196.7652 
  44   0.0000       7.666548       208.6174 
  45   0.0000       7.745062       210.7538 
  46   0.0000       7.895276       214.8414 
  47   0.0000       7.895276       214.8414 
  48   0.0000       8.713887       237.1169 
  49   0.0000       9.061230       246.5686 
  50   0.0000       9.061230       246.5686 
  51   0.0000      10.665088       290.2118 
  52   0.0000      10.665088       290.2118 
  53   0.0000      11.372007       309.4480 
  54   0.0000      11.372007       309.4480 
  55   0.0000      11.992558       326.3341 
  56   0.0000      15.141697       412.0265 
  57   0.0000      15.141697       412.0265 
  58   0.0000      15.969493       434.5520 
  59   0.0000      18.591224       505.8929 


---------------------------------------------
CAS-SCF STATES FOR BLOCK  1 MULT= 1 NROOTS= 1
---------------------------------------------

ROOT   0:  E=      -1.1000306800 Eh
      0.98763 [     0]: 200000
      0.00489 [     6]: 020000
      0.00343 [    11]: 002000


--------------
DENSITY MATRIX
--------------

                  0          1          2          3          4          5    
      0       1.975267   0.000000   0.000000   0.000000  -0.000000  -0.000000
      1       0.000000   0.009790  -0.000000  -0.000000  -0.000000  -0.000000
      2       0.000000  -0.000000   0.006864  -0.000000  -0.000000  -0.000000
      3       0.000000  -0.000000  -0.000000   0.004039  -0.000000   0.000000
      4      -0.000000  -0.000000  -0.000000  -0.000000   0.004039   0.000000
      5      -0.000000  -0.000000  -0.000000   0.000000   0.000000   0.000000
Trace of the electron density:  2.000000

-----------------
ENERGY COMPONENTS
-----------------

One electron energy          :     -2.849241059 Eh         -77.5318 eV
Two electron energy          :      0.693363038 Eh          18.8674 eV
Nuclear repulsion energy     :      1.055847342 Eh          28.7311 eV
                               ----------------
                                   -1.100030680

Kinetic energy               :      1.490283500 Eh          40.5527 eV
Potential energy             :     -2.590314180 Eh         -70.4860 eV
Virial ratio                 :     -1.738135180 
                               ----------------
                                   -1.100030680

Core energy                  :      1.055847342 Eh       28.7311 eV


----------------------------
LOEWDIN ORBITAL-COMPOSITIONS
----------------------------

                      0         1         2         3         4         5   
                  -0.67443   1.02142   1.13418   1.27631   1.27631   0.19998
                   1.97527   0.00979   0.00686   0.00404   0.00404   0.00000
                  --------  --------  --------  --------  --------  --------
 0 H  s              47.2      10.2      34.8       0.0       0.0      48.5
 0 H  pz              0.0       0.0       0.0       0.0      46.7       0.0
 0 H  px              2.4      34.8      13.1       0.0       0.0       1.2
 0 H  py              0.0       0.0       0.0      46.7       0.0       0.0
 0 H  dz2             0.1       1.1       0.5       0.0       0.0       0.1
 0 H  dxz             0.0       0.0       0.0       0.0       3.1       0.0
 0 H  dx2y2           0.2       3.4       1.5       0.0       0.0       0.2
 0 H  dxy             0.0       0.0       0.0       3.1       0.0       0.0
 0 H  f+1             0.0       0.2       0.1       0.0       0.0       0.0
 0 H  f+3             0.0       0.3       0.1       0.0       0.0       0.0
 0 H  f-3             0.0       0.0       0.0       0.1       0.0       0.0
 1 H  s              47.2      10.2      34.8       0.0       0.0      48.5
 1 H  pz              0.0       0.0       0.0       0.0      46.7       0.0
 1 H  px              2.4      34.8      13.1       0.0       0.0       1.2
 1 H  py              0.0       0.0       0.0      46.7       0.0       0.0
 1 H  dz2             0.1       1.1       0.5       0.0       0.0       0.1
 1 H  dxz             0.0       0.0       0.0       0.0       3.1       0.0
 1 H  dx2y2           0.2       3.4       1.5       0.0       0.0       0.2
 1 H  dxy             0.0       0.0       0.0       3.1       0.0       0.0
 1 H  f+1             0.0       0.2       0.1       0.0       0.0       0.0
 1 H  f+3             0.0       0.3       0.1       0.0       0.0       0.0
 1 H  f-3             0.0       0.0       0.0       0.1       0.0       0.0

                      6         7         8         9        10        11   
                   0.43899   0.77854   0.79981   0.79981   0.84961   1.57569
                   0.00000   0.00000   0.00000   0.00000   0.00000   0.00000
                  --------  --------  --------  --------  --------  --------
 0 H  s              48.4      36.1       0.0       0.0       2.8       0.0
 0 H  pz              0.0       0.0      40.7       0.0       0.0       0.0
 0 H  px              1.6      13.9       0.0       0.0      35.6       0.0
 0 H  py              0.0       0.0       0.0      40.7       0.0      47.8
 0 H  dz2             0.0       0.0       0.0       0.0       2.9       0.0
 0 H  dxz             0.0       0.0       9.3       0.0       0.0       0.0
 0 H  dx2y2           0.0       0.0       0.0       0.0       8.7       0.0
 0 H  dxy             0.0       0.0       0.0       9.3       0.0       2.0
 0 H  f-3             0.0       0.0       0.0       0.0       0.0       0.2
 1 H  s              48.4      36.1       0.0       0.0       2.8       0.0
 1 H  pz              0.0       0.0      40.7       0.0       0.0       0.0
 1 H  px              1.6      13.9       0.0       0.0      35.6       0.0
 1 H  py              0.0       0.0       0.0      40.7       0.0      47.8
 1 H  dz2             0.0       0.0       0.0       0.0       2.9       0.0
 1 H  dxz             0.0       0.0       9.3       0.0       0.0       0.0
 1 H  dx2y2           0.0       0.0       0.0       0.0       8.7       0.0
 1 H  dxy             0.0       0.0       0.0       9.3       0.0       2.0
 1 H  f-3             0.0       0.0       0.0       0.0       0.0       0.2

                     12        13        14        15        16        17   
                   1.57569   1.72878   2.00028   2.00028   2.22132   2.22132
                   0.00000   0.00000   0.00000   0.00000   0.00000   0.00000
                  --------  --------  --------  --------  --------  --------
 0 H  s               0.0      13.8       0.0       0.0       0.0       0.0
 0 H  pz             47.8       0.0       0.0       0.0      11.2       0.0
 0 H  px              0.0      25.7       0.0       0.0       0.0       0.0
 0 H  py              0.0       0.0       0.0       0.0       0.0      11.2
 0 H  dz2             0.0       2.6       0.0      37.4       0.0       0.0
 0 H  dxz             2.0       0.0       0.0       0.0      38.7       0.0
 0 H  dyz             0.0       0.0      49.9       0.0       0.0       0.0
 0 H  dx2y2           0.0       7.8       0.0      12.5       0.0       0.0
 0 H  dxy             0.0       0.0       0.0       0.0       0.0      38.7
 0 H  f+2             0.1       0.0       0.0       0.0       0.0       0.0
 1 H  s               0.0      13.8       0.0       0.0       0.0       0.0
 1 H  pz             47.8       0.0       0.0       0.0      11.2       0.0
 1 H  px              0.0      25.7       0.0       0.0       0.0       0.0
 1 H  py              0.0       0.0       0.0       0.0       0.0      11.2
 1 H  dz2             0.0       2.6       0.0      37.4       0.0       0.0
 1 H  dxz             2.0       0.0       0.0       0.0      38.7       0.0
 1 H  dyz             0.0       0.0      49.9       0.0       0.0       0.0
 1 H  dx2y2           0.0       7.8       0.0      12.5       0.0       0.0
 1 H  dxy             0.0       0.0       0.0       0.0       0.0      38.7
 1 H  f+2             0.1       0.0       0.0       0.0       0.0       0.0

                     18        19        20        21        22        23   
                   2.50870   2.55839   2.55839   2.61090   2.61090   2.70928
                   0.00000   0.00000   0.00000   0.00000   0.00000   0.00000
                  --------  --------  --------  --------  --------  --------
 0 H  s               0.5       0.0       0.0       0.0       0.0      36.3
 0 H  pz              0.0       0.0       0.0       0.0       4.3       0.0
 0 H  px             22.2       0.0       0.0       0.0       0.0       8.8
 0 H  py              0.0       0.0       0.0       4.3       0.0       0.0
 0 H  dz2             6.7       0.0      32.0       0.0       0.0       1.2
 0 H  dxz             0.0       0.0       0.0       0.0      40.5       0.0
 0 H  dyz             0.0      42.7       0.0       0.0       0.0       0.0
 0 H  dx2y2          20.2       0.0      10.7       0.0       0.0       3.7
 0 H  dxy             0.0       0.0       0.0      40.5       0.0       0.0
 0 H  f0              0.0       0.0       0.0       0.0       1.9       0.0
 0 H  f+1             0.1       0.0       4.6       0.0       0.0       0.0
 0 H  f-1             0.0       0.0       0.0       0.3       0.0       0.0
 0 H  f+2             0.0       0.0       0.0       0.0       3.2       0.0
 0 H  f-2             0.0       7.3       0.0       0.0       0.0       0.0
 0 H  f+3             0.2       0.0       2.7       0.0       0.0       0.0
 0 H  f-3             0.0       0.0       0.0       4.8       0.0       0.0
 1 H  s               0.5       0.0       0.0       0.0       0.0      36.3
 1 H  pz              0.0       0.0       0.0       0.0       4.3       0.0
 1 H  px             22.2       0.0       0.0       0.0       0.0       8.8
 1 H  py              0.0       0.0       0.0       4.3       0.0       0.0
 1 H  dz2             6.7       0.0      32.0       0.0       0.0       1.2
 1 H  dxz             0.0       0.0       0.0       0.0      40.5       0.0
 1 H  dyz             0.0      42.7       0.0       0.0       0.0       0.0
 1 H  dx2y2          20.2       0.0      10.7       0.0       0.0       3.7
 1 H  dxy             0.0       0.0       0.0      40.5       0.0       0.0
 1 H  f0              0.0       0.0       0.0       0.0       1.9       0.0
 1 H  f+1             0.1       0.0       4.6       0.0       0.0       0.0
 1 H  f-1             0.0       0.0       0.0       0.3       0.0       0.0
 1 H  f+2             0.0       0.0       0.0       0.0       3.2       0.0
 1 H  f-2             0.0       7.3       0.0       0.0       0.0       0.0
 1 H  f+3             0.2       0.0       2.7       0.0       0.0       0.0
 1 H  f-3             0.0       0.0       0.0       4.8       0.0       0.0

                     24        25        26        27        28        29   
                   2.75596   3.83234   4.20316   4.20316   5.77637   5.77637
                   0.00000   0.00000   0.00000   0.00000   0.00000   0.00000
                  --------  --------  --------  --------  --------  --------
 0 H  s               4.3      32.3       0.0       0.0       0.0       0.0
 0 H  pz              0.0       0.0      23.0       0.0       0.0       0.0
 0 H  px              7.8      11.4       0.0       0.0       0.0       0.0
 0 H  py              0.0       0.0       0.0      23.0       0.0       0.0
 0 H  dz2             7.7       0.9       0.0       0.0       0.0       0.0
 0 H  dxz             0.0       0.0      13.3       0.0       0.0       0.0
 0 H  dx2y2          23.2       2.7       0.0       0.0       0.0       0.0
 0 H  dxy             0.0       0.0       0.0      13.3       0.0       0.0
 0 H  f0              0.0       0.0       5.1       0.0      30.5       0.8
 0 H  f+1             2.6       1.0       0.0       0.0       0.0       0.0
 0 H  f-1             0.0       0.0       0.0       0.9       1.2      45.7
 0 H  f+2             0.0       0.0       8.5       0.0      18.3       0.5
 0 H  f+3             4.3       1.7       0.0       0.0       0.0       0.0
 0 H  f-3             0.0       0.0       0.0      12.8       0.1       3.0
 1 H  s               4.3      32.3       0.0       0.0       0.0       0.0
 1 H  pz              0.0       0.0      23.0       0.0       0.0       0.0
 1 H  px              7.8      11.4       0.0       0.0       0.0       0.0
 1 H  py              0.0       0.0       0.0      23.0       0.0       0.0
 1 H  dz2             7.7       0.9       0.0       0.0       0.0       0.0
 1 H  dxz             0.0       0.0      13.3       0.0       0.0       0.0
 1 H  dx2y2          23.2       2.7       0.0       0.0       0.0       0.0
 1 H  dxy             0.0       0.0       0.0      13.3       0.0       0.0
 1 H  f0              0.0       0.0       5.1       0.0      30.5       0.8
 1 H  f+1             2.6       1.0       0.0       0.0       0.0       0.0
 1 H  f-1             0.0       0.0       0.0       0.9       1.2      45.7
 1 H  f+2             0.0       0.0       8.5       0.0      18.3       0.5
 1 H  f+3             4.3       1.7       0.0       0.0       0.0       0.0
 1 H  f-3             0.0       0.0       0.0      12.8       0.1       3.0

                     30        31        32        33        34        35   
                   6.06391   6.80205   6.87540   6.87540   6.90290   6.90290
                   0.00000   0.00000   0.00000   0.00000   0.00000   0.00000
                  --------  --------  --------  --------  --------  --------
 0 H  s               1.6      11.5       0.0       0.0       0.0       0.0
 0 H  px              5.1       7.7       0.0       0.0       0.0       0.0
 0 H  dz2             1.4       7.7       0.0      10.4       0.0       3.5
 0 H  dyz             0.0       0.0      13.8       0.0       4.6       0.0
 0 H  dx2y2           4.3      23.0       0.0       3.5       0.0       1.2
 0 H  f+1            14.1       0.0       0.0      22.6       0.0      28.3
 0 H  f-2             0.0       0.0      36.1       0.0      45.4       0.0
 0 H  f+3            23.5       0.1       0.0      13.6       0.0      17.0
 1 H  s               1.6      11.5       0.0       0.0       0.0       0.0
 1 H  px              5.1       7.7       0.0       0.0       0.0       0.0
 1 H  dz2             1.4       7.7       0.0      10.4       0.0       3.5
 1 H  dyz             0.0       0.0      13.8       0.0       4.6       0.0
 1 H  dx2y2           4.3      23.0       0.0       3.5       0.0       1.2
 1 H  f+1            14.1       0.0       0.0      22.6       0.0      28.3
 1 H  f-2             0.0       0.0      36.1       0.0      45.4       0.0
 1 H  f+3            23.5       0.1       0.0      13.6       0.0      17.0

                     36        37        38        39        40        41   
                   7.01765   7.01765   7.11098   7.11098   7.11930   7.11930
                   0.00000   0.00000   0.00000   0.00000   0.00000   0.00000
                  --------  --------  --------  --------  --------  --------
 0 H  pz             25.3       0.0       7.1       0.0       0.0       0.0
 0 H  py              0.0      25.3       0.0       7.1       0.0       0.0
 0 H  dxz             0.7       0.0       7.5       0.0       0.0       0.0
 0 H  dxy             0.0       0.7       0.0       7.5       0.0       0.0
 0 H  f0              9.0       0.0      13.3       0.0      30.9       0.4
 0 H  f-1             0.0       1.5       0.0       2.2       0.6      46.3
 0 H  f+2            15.0       0.0      22.1       0.0      18.5       0.2
 0 H  f-3             0.0      22.5       0.0      33.2       0.0       3.1
 1 H  pz             25.3       0.0       7.1       0.0       0.0       0.0
 1 H  py              0.0      25.3       0.0       7.1       0.0       0.0
 1 H  dxz             0.7       0.0       7.5       0.0       0.0       0.0
 1 H  dxy             0.0       0.7       0.0       7.5       0.0       0.0
 1 H  f0              9.0       0.0      13.3       0.0      30.9       0.4
 1 H  f-1             0.0       1.5       0.0       2.2       0.6      46.3
 1 H  f+2            15.0       0.0      22.1       0.0      18.5       0.2
 1 H  f-3             0.0      22.5       0.0      33.2       0.0       3.1

                     42        43        44        45        46        47   
                   7.23099   7.23099   7.66655   7.74506   7.89528   7.89528
                   0.00000   0.00000   0.00000   0.00000   0.00000   0.00000
                  --------  --------  --------  --------  --------  --------
 0 H  s               0.0       0.0       4.7       2.7       0.0       0.0
 0 H  pz             10.3       0.0       0.0       0.0       0.0       0.0
 0 H  px              0.0       0.0       7.4      34.4       0.0       0.0
 0 H  py              0.0      10.3       0.0       0.0       0.0       0.0
 0 H  dz2             0.0       0.0       1.5       1.1       0.0      34.1
 0 H  dxz            30.6       0.0       0.0       0.0       0.0       0.0
 0 H  dyz             0.0       0.0       0.0       0.0      45.4       0.0
 0 H  dx2y2           0.0       0.0       4.5       3.3       0.0      11.4
 0 H  dxy             0.0      30.6       0.0       0.0       0.0       0.0
 0 H  f0              3.4       0.0       0.0       0.0       0.0       0.0
 0 H  f+1             0.0       0.0      12.0       3.2       0.0       2.8
 0 H  f-1             0.0       0.6       0.0       0.0       0.0       0.0
 0 H  f+2             5.7       0.0       0.0       0.0       0.0       0.0
 0 H  f-2             0.0       0.0       0.0       0.0       4.6       0.0
 0 H  f+3             0.0       0.0      19.9       5.3       0.0       1.7
 0 H  f-3             0.0       8.6       0.0       0.0       0.0       0.0
 1 H  s               0.0       0.0       4.7       2.7       0.0       0.0
 1 H  pz             10.3       0.0       0.0       0.0       0.0       0.0
 1 H  px              0.0       0.0       7.4      34.4       0.0       0.0
 1 H  py              0.0      10.3       0.0       0.0       0.0       0.0
 1 H  dz2             0.0       0.0       1.5       1.1       0.0      34.1
 1 H  dxz            30.6       0.0       0.0       0.0       0.0       0.0
 1 H  dyz             0.0       0.0       0.0       0.0      45.4       0.0
 1 H  dx2y2           0.0       0.0       4.5       3.3       0.0      11.4
 1 H  dxy             0.0      30.6       0.0       0.0       0.0       0.0
 1 H  f0              3.4       0.0       0.0       0.0       0.0       0.0
 1 H  f+1             0.0       0.0      12.0       3.2       0.0       2.8
 1 H  f-1             0.0       0.6       0.0       0.0       0.0       0.0
 1 H  f+2             5.7       0.0       0.0       0.0       0.0       0.0
 1 H  f-2             0.0       0.0       0.0       0.0       4.6       0.0
 1 H  f+3             0.0       0.0      19.9       5.3       0.0       1.7
 1 H  f-3             0.0       8.6       0.0       0.0       0.0       0.0

                     48        49        50        51        52        53   
                   8.71389   9.06123   9.06123  10.66509  10.66509  11.37201
                   0.00000   0.00000   0.00000   0.00000   0.00000   0.00000
                  --------  --------  --------  --------  --------  --------
 0 H  s               0.6       0.0       0.0       0.0       0.0       0.0
 0 H  pz              0.0      44.5       0.0       0.0      15.7       0.0
 0 H  px             13.8       0.0       0.0       0.0       0.0       0.0
 0 H  py              0.0       0.0      44.5      15.7       0.0       0.0
 0 H  dz2             8.2       0.0       0.0       0.0       0.0      32.5
 0 H  dxz             0.0       4.6       0.0       0.0      23.0       0.0
 0 H  dyz             0.0       0.0       0.0       0.0       0.0       0.1
 0 H  dx2y2          24.7       0.0       0.0       0.0       0.0      10.8
 0 H  dxy             0.0       0.0       4.6      23.0       0.0       0.0
 0 H  f0              0.0       0.3       0.0       0.0       4.3       0.0
 0 H  f+1             1.0       0.0       0.0       0.0       0.0       4.1
 0 H  f-1             0.0       0.0       0.1       0.7       0.0       0.0
 0 H  f+2             0.0       0.5       0.0       0.0       7.1       0.0
 0 H  f+3             1.7       0.0       0.0       0.0       0.0       2.4
 0 H  f-3             0.0       0.0       0.8      10.7       0.0       0.0
 1 H  s               0.6       0.0       0.0       0.0       0.0       0.0
 1 H  pz              0.0      44.5       0.0       0.0      15.7       0.0
 1 H  px             13.8       0.0       0.0       0.0       0.0       0.0
 1 H  py              0.0       0.0      44.5      15.7       0.0       0.0
 1 H  dz2             8.2       0.0       0.0       0.0       0.0      32.5
 1 H  dxz             0.0       4.6       0.0       0.0      23.0       0.0
 1 H  dyz             0.0       0.0       0.0       0.0       0.0       0.1
 1 H  dx2y2          24.7       0.0       0.0       0.0       0.0      10.8
 1 H  dxy             0.0       0.0       4.6      23.0       0.0       0.0
 1 H  f0              0.0       0.3       0.0       0.0       4.3       0.0
 1 H  f+1             1.0       0.0       0.0       0.0       0.0       4.1
 1 H  f-1             0.0       0.0       0.1       0.7       0.0       0.0
 1 H  f+2             0.0       0.5       0.0       0.0       7.1       0.0
 1 H  f+3             1.7       0.0       0.0       0.0       0.0       2.4
 1 H  f-3             0.0       0.0       0.8      10.7       0.0       0.0

                     54        55        56        57        58        59   
                  11.37201  11.99256  15.14170  15.14170  15.96949  18.59122
                   0.00000   0.00000   0.00000   0.00000   0.00000   0.00000
                  --------  --------  --------  --------  --------  --------
 0 H  s               0.0      11.2       0.0       0.0      27.4      25.2
 0 H  pz              0.0       0.0      23.3       0.0       0.0       0.0
 0 H  px              0.0      20.9       0.0       0.0      19.2      13.0
 0 H  py              0.0       0.0       0.0      23.3       0.0       0.0
 0 H  dz2             0.1       2.7       0.0       0.0       0.7       2.8
 0 H  dxz             0.0       0.0      26.6       0.0       0.0       0.0
 0 H  dyz            43.4       0.0       0.0       0.0       0.0       0.0
 0 H  dx2y2           0.0       8.0       0.0       0.0       2.2       8.4
 0 H  dxy             0.0       0.0       0.0      26.6       0.0       0.0
 0 H  f+1             0.0       2.7       0.0       0.0       0.2       0.3
 0 H  f-2             6.5       0.0       0.0       0.0       0.0       0.0
 0 H  f+3             0.0       4.6       0.0       0.0       0.3       0.4
 1 H  s               0.0      11.2       0.0       0.0      27.4      25.2
 1 H  pz              0.0       0.0      23.3       0.0       0.0       0.0
 1 H  px              0.0      20.9       0.0       0.0      19.2      13.0
 1 H  py              0.0       0.0       0.0      23.3       0.0       0.0
 1 H  dz2             0.1       2.7       0.0       0.0       0.7       2.8
 1 H  dxz             0.0       0.0      26.6       0.0       0.0       0.0
 1 H  dyz            43.4       0.0       0.0       0.0       0.0       0.0
 1 H  dx2y2           0.0       8.0       0.0       0.0       2.2       8.4
 1 H  dxy             0.0       0.0       0.0      26.6       0.0       0.0
 1 H  f+1             0.0       2.7       0.0       0.0       0.2       0.3
 1 H  f-2             6.5       0.0       0.0       0.0       0.0       0.0
 1 H  f+3             0.0       4.6       0.0       0.0       0.3       0.4


----------------------------
LOEWDIN REDUCED ACTIVE MOs  
----------------------------

                      0         1         2         3         4         5   
                  -0.67443   1.02142   1.13418   1.27631   1.27631   0.19998
                   1.97527   0.00979   0.00686   0.00404   0.00404   0.00000
                  --------  --------  --------  --------  --------  --------
 0 H  s              47.2      10.2      34.8       0.0       0.0      48.5
 0 H  pz              0.0       0.0       0.0       0.0      46.7       0.0
 0 H  px              2.4      34.8      13.1       0.0       0.0       1.2
 0 H  py              0.0       0.0       0.0      46.7       0.0       0.0
 1 H  s              47.2      10.2      34.8       0.0       0.0      48.5
 1 H  pz              0.0       0.0       0.0       0.0      46.7       0.0
 1 H  px              2.4      34.8      13.1       0.0       0.0       1.2
 1 H  py              0.0       0.0       0.0      46.7       0.0       0.0

------------------------------------------------------------------------------
                           ORCA POPULATION ANALYSIS
------------------------------------------------------------------------------
Input electron density              ... H2_0_1_CASSCF-2-6_def2-qzvpp.sp.scfp
BaseName (.gbw .S,...)              ... H2_0_1_CASSCF-2-6_def2-qzvpp.sp

                    ********************************
                    * MULLIKEN POPULATION ANALYSIS *
                    ********************************

-----------------------
MULLIKEN ATOMIC CHARGES
-----------------------
   0 H :   -0.000000
   1 H :    0.000000
Sum of atomic charges:   -0.0000000

--------------------------------
MULLIKEN REDUCED ORBITAL CHARGES
--------------------------------
  0 H s       :     0.982216  s :     0.982216
      pz      :     0.001923  p :     0.017463
      px      :     0.013618
      py      :     0.001923
      dz2     :     0.000030  d :     0.000312
      dxz     :     0.000096
      dyz     :    -0.000000
      dx2y2   :     0.000091
      dxy     :     0.000096
      f0      :     0.000000  f :     0.000008
      f+1     :     0.000002
      f-1     :     0.000000
      f+2     :     0.000001
      f-2     :     0.000000
      f+3     :     0.000004
      f-3     :     0.000001
  1 H s       :     0.982216  s :     0.982216
      pz      :     0.001923  p :     0.017463
      px      :     0.013618
      py      :     0.001923
      dz2     :     0.000030  d :     0.000312
      dxz     :     0.000096
      dyz     :     0.000000
      dx2y2   :     0.000091
      dxy     :     0.000096
      f0      :     0.000000  f :     0.000008
      f+1     :     0.000002
      f-1     :     0.000000
      f+2     :     0.000001
      f-2     :    -0.000000
      f+3     :     0.000004
      f-3     :     0.000001

------------------------
MULLIKEN OVERLAP CHARGES
------------------------
B(  0-H ,  1-H ) :   0.9033 


                     *******************************
                     * LOEWDIN POPULATION ANALYSIS *
                     *******************************

----------------------
LOEWDIN ATOMIC CHARGES
----------------------
   0 H :   -0.000000
   1 H :    0.000000

-------------------------------
LOEWDIN REDUCED ORBITAL CHARGES
-------------------------------
  0 H s       :     0.936109  s :     0.936109
      pz      :     0.001887  p :     0.056229
      px      :     0.052455
      py      :     0.001887
      dz2     :     0.001684  d :     0.006987
      dxz     :     0.000126
      dyz     :     0.000000
      dx2y2   :     0.005051
      dxy     :     0.000126
      f0      :     0.000002  f :     0.000675
      f+1     :     0.000249
      f-1     :     0.000000
      f+2     :     0.000004
      f-2     :     0.000000
      f+3     :     0.000414
      f-3     :     0.000006
  1 H s       :     0.936109  s :     0.936109
      pz      :     0.001887  p :     0.056229
      px      :     0.052455
      py      :     0.001887
      dz2     :     0.001684  d :     0.006987
      dxz     :     0.000126
      dyz     :     0.000000
      dx2y2   :     0.005051
      dxy     :     0.000126
      f0      :     0.000002  f :     0.000675
      f+1     :     0.000249
      f-1     :     0.000000
      f+2     :     0.000004
      f-2     :     0.000000
      f+3     :     0.000414
      f-3     :     0.000006

---------------------------------
LOEWDIN BOND ORDERS (THRESH 0.050000)
---------------------------------
B(  0-H ,  1-H ) :   0.9752 


                      *****************************
                      * MAYER POPULATION ANALYSIS *
                      *****************************

  NA   - Mulliken gross atomic population
  ZA   - Total nuclear charge
  QA   - Mulliken gross atomic charge
  VA   - Mayer's total valence
  BVA  - Mayer's bonded valence
  FA   - Mayer's free valence

  ATOM       NA         ZA         QA         VA         BVA        FA
  0 H      1.0000     1.0000    -0.0000     1.0223     0.9732     0.0491
  1 H      1.0000     1.0000     0.0000     1.0223     0.9732     0.0491

  Mayer bond orders larger than 0.100000
B(  0-H ,  1-H ) :   0.9732 


-------------------------------------------------------------
 Forming the transition density       ... done in 0.001698 sec
-------------------------------------------------------------



==========================================
CASSCF UV, CD spectra and dipole moments
==========================================
-------------------
ABSORPTION SPECTRUM
-------------------

Center of mass           = (  0.4736,  0.0000,  0.0000)
Nuclear contribution to the dipole moment =     0.000000,    0.000000,    0.000000 au

Calculating the dipole integrals                  ... done
Transforming integrals                            ... done
Calculating the Linear Momentum integrals         ... done
Transforming integrals                            ... done
Calculating the Angular Momentum integrals        ... done
Transforming integrals                            ... done

Ground state mult:    1
Ground state block:   0
Ground state root:    0


------------------------------------------------------------------------------
                                 DIPOLE MOMENTS
------------------------------------------------------------------------------
  Root  Block           TX        TY        TZ           |T|
                      (Debye)   (Debye)   (Debye)      (Debye)
------------------------------------------------------------------------------
    0    0            0.00000  -0.00000   0.00000      0.00000

--------------
CASSCF TIMINGS
--------------

Total time                       ...        3.2 sec
Sum of individual times          ...        2.9 sec ( 89.0%)

Calculation of AO operators
   F(Core) operator              ...        0.1 sec (  2.1%)
   G(Act) operator               ...        0.8 sec ( 25.1%)
   J(AO) operators               ...        0.0 sec (  0.0%)
Calculation of MO transformed quantities
   J(MO) operators               ...        1.8 sec ( 54.7%)
   (pq|rs) integrals             ...        0.0 sec (  0.0%)
   AO->MO one electron integrals ...        0.0 sec (  0.9%)
Configuration interaction steps
   CI-setup phase                ...        0.0 sec (  0.0%)
   CI-solution phase             ...        0.2 sec (  5.4%)
   Generation of densities       ...        0.0 sec (  0.1%)
Orbital improvement steps
   Orbital gradient              ...        0.0 sec (  0.3%)
   O(1) converger                ...        0.0 sec (  0.2%)
Properties                       ...        0.0 sec (  0.2%)
   SOC integral calculation      ...        0.0 sec (  0.0%)
   SSC RMEs (incl. integrals)    ...        0.0 sec (  0.0%)
   SOC RMEs                      ...        0.0 sec (  0.0%)

-------------------------   --------------------
FINAL SINGLE POINT ENERGY        -1.100030679992
-------------------------   --------------------

Storing actual gbw-file in H2_0_1_CASSCF-2-6_def2-qzvpp.sp.001.gbw ... done

                            ***************************************
                            *     ORCA property calculations      *
                            ***************************************

                                    ---------------------
                                    Active property flags
                                    ---------------------
   (+) Dipole Moment


------------------------------------------------------------------------------
                       ORCA ELECTRIC PROPERTIES CALCULATION
------------------------------------------------------------------------------

Dipole Moment Calculation                       ... on
Quadrupole Moment Calculation                   ... off
Polarizability Calculation                      ... off
GBWName                                         ... H2_0_1_CASSCF-2-6_def2-qzvpp.sp.gbw
Electron density file                           ... H2_0_1_CASSCF-2-6_def2-qzvpp.sp.scfp
The origin for moment calculation is the CENTER OF MASS  = ( 0.473553,  0.000000  0.000000)

-------------
DIPOLE MOMENT
-------------
                                X             Y             Z
Electronic contribution:      0.00000      -0.00000       0.00000
Nuclear contribution   :      0.00000       0.00000       0.00000
                        -----------------------------------------
Total Dipole Moment    :      0.00000      -0.00000       0.00000
                        -----------------------------------------
Magnitude (a.u.)       :      0.00000
Magnitude (Debye)      :      0.00000



--------------------
Rotational spectrum 
--------------------
 
Rotational constants in cm-1:     0.000000   133.157724   133.157724 
Rotational constants in MHz :     0.000000 3991968.149099 3991968.149099 

 Dipole components along the rotational axes: 
x,y,z [a.u.] :     0.000000    -0.000000     0.000000 
x,y,z [Debye]:     0.000000    -0.000000     0.000000 

 

         *************************************************************
                                TRAJECTORY STEP   2
                RHH  :   0.60842987
         *************************************************************
---------------------------------
CARTESIAN COORDINATES (ANGSTROEM)
---------------------------------
  H      0.000000    0.000000    0.000000
  H      0.608430    0.000000    0.000000

----------------------------
CARTESIAN COORDINATES (A.U.)
----------------------------
  NO LB      ZA    FRAG     MASS         X           Y           Z
   0 H     1.0000    0     1.008    0.000000    0.000000    0.000000
   1 H     1.0000    0     1.008    1.149766    0.000000    0.000000

--------------------------------
INTERNAL COORDINATES (ANGSTROEM)
--------------------------------
 H      0   0   0     0.000000000000     0.00000000     0.00000000
 H      1   0   0     0.608429869077     0.00000000     0.00000000

---------------------------
INTERNAL COORDINATES (A.U.)
---------------------------
 H      0   0   0     0.000000000000     0.00000000     0.00000000
 H      1   0   0     1.149765824252     0.00000000     0.00000000


Diagonalization of the overlap matrix:
Smallest eigenvalue                        ... 8.441e-05
Time for diagonalization                   ...    0.002 sec
Threshold for overlap eigenvalues          ... 1.000e-08
Number of eigenvalues below threshold      ... 0
Time for construction of square roots      ...    0.002 sec
Total time needed                          ...    0.004 sec



 ... the calculation is a CASSCF calculation -I'm leaving here GOOD LUCK!!!

-------------------------------------------------------------------------------
                              ORCA-CASSCF
-------------------------------------------------------------------------------

Setting up the integral package       ... done
Building the CAS space                ... done (21 configurations for Mult=1)

SYSTEM-SPECIFIC SETTINGS:
Number of active electrons          ...    2
Number of active orbitals           ...    6
Total number of electrons           ...    2
Total number of orbitals            ...   60

Determined orbital ranges:
   Internal       0 -   -1 (   0 orbitals)
   Active         0 -    5 (   6 orbitals)
   External       6 -   59 (  54 orbitals)
Number of rotation parameters      ...    324

CI-STEP:
CI strategy                         ... General CI
Number of multiplicity blocks       ...    1
BLOCK  1 WEIGHT=   1.0000
  Multiplicity                      ...    1
  #(Configurations)                 ...   21
  #(CSFs)                           ...   21
  #(Roots)                          ...    1
    ROOT=0 WEIGHT=    1.000000

  PrintLevel                        ...    1
  N(GuessMat)                       ...       512
  MaxDim(CI)                        ...        10
  MaxIter(CI)                       ...        64
  Energy Tolerance CI               ...  2.50e-09
  Residual Tolerance CI             ...  2.50e-09
  Shift(CI)                         ...  1.00e-04

INTEGRAL-TRANSFORMATION-STEP:
  Algorithm                         ... EXACT

ORBITAL-IMPROVEMENT-STEP:
  Algorithm                         ... SuperCI(PT)
  Default Parametrization           ... CAYLEY
  Act-Act rotations                 ... depends on algorithm used

  Note: SuperCI(PT) will ignore FreezeIE, FreezeAct and FreezeGrad. In general Default settings are encouraged.
        In conjunction with ShiftUp, ShiftDn or GradScaling the performance of SuperCI(PT) is less optimal.  

  MaxRot                            ... 2.00e-01 
  Max. no of vectors (DIIS)         ... 15
  DThresh (cut-off) metric          ... 1.00e-06
  Switch step at gradient           ...  3.00e-02 
  Switch step at iteration          ...        50   
  Switch step to                    ... SuperCI(PT)    

SCF-SETTINGS:
  Incremental                       ... on
  RIJCOSX approximation             ... off
  RI-JK approximation               ... off
  AO integral handling              ... DIRECT
  Integral Neglect Thresh           ...  2.50e-11
  Primitive cutoff TCut             ...  2.50e-12
  Energy convergence tolerance      ...  2.50e-08
  Orbital gradient convergence      ...  2.50e-04
  Max. number of iterations         ...        75  


FINAL ORBITALS:
  Active   Orbitals                 ... natural 
  Internal Orbitals                 ... canonical 
  External Orbitals                 ... canonical 

------------------
CAS-SCF ITERATIONS
------------------


MACRO-ITERATION   1: 
   --- Inactive Energy E0 = 0.86974232 Eh
CI-ITERATION   0: 
    -1.152598812   0.000000000000 (    0.00)
   CI-PROBLEM SOLVED
   DENSITIES MADE

                 <<<<<<<<<<<<<<<<<<INITIAL CI STATE CHECK>>>>>>>>>>>>>>>>>>

BLOCK  1 MULT= 1 NROOTS= 1 
ROOT   0:  E=      -1.1525988125 Eh
      0.98479 [     0]: 200000
      0.00705 [     6]: 020000
      0.00280 [    11]: 002000

                 <<<<<<<<<<<<<<<<<<INITIAL CI STATE CHECK>>>>>>>>>>>>>>>>>>

   E(CAS)=    -1.152598812 Eh DE=     0.000000000
   --- Energy gap subspaces: Ext-Act = -0.797   Act-Int = 0.600
   N(occ)=  1.97100 0.01410 0.00702 0.00394 0.00394 0.00001
   ||g|| =      0.201009281 Max(G)=    -0.149355049 Rot=59,0
   --- Orbital Update [SuperCI(PT)]
   --- Canonicalize Internal Space
   --- Canonicalize External Space
   --- SX_PT (Skipped TA=0 IT=0): ||X|| =      1.440354644 Max(X)(27,5) =      0.822782086 
   --- SFit(Active Orbitals)

MACRO-ITERATION   2: 
   --- Inactive Energy E0 = 0.86974232 Eh
CI-ITERATION   0: 
    -1.153768814   0.000000000000 (    0.00)
   CI-PROBLEM SOLVED
   DENSITIES MADE
   E(CAS)=    -1.153768814 Eh DE=    -0.001170002
   --- Energy gap subspaces: Ext-Act = -1.843   Act-Int = 0.600
   N(occ)=  1.97000 0.01381 0.00778 0.00417 0.00417 0.00007
   ||g|| =      0.023749694 Max(G)=    -0.013408283 Rot=23,0
   --- Orbital Update [SuperCI(PT)]
   --- Canonicalize Internal Space
   --- Canonicalize External Space
   --- SX_PT (Skipped TA=0 IT=0): ||X|| =      0.780036226 Max(X)(7,5) =      0.534884666 
   --- SFit(Active Orbitals)

MACRO-ITERATION   3: 
   --- Inactive Energy E0 = 0.86974232 Eh
CI-ITERATION   0: 
    -1.154103139   0.000000000000 (    0.00)
   CI-PROBLEM SOLVED
   DENSITIES MADE
   E(CAS)=    -1.154103139 Eh DE=    -0.000334325
   --- Energy gap subspaces: Ext-Act = -3.538   Act-Int = 0.600
   N(occ)=  1.96910 0.01390 0.00831 0.00429 0.00429 0.00011
   ||g|| =      0.007595734 Max(G)=    -0.004831897 Rot=30,0
   --- Orbital Update [SuperCI(PT)]
   --- Canonicalize Internal Space
   --- Canonicalize External Space
   --- SX_PT (Skipped TA=0 IT=0): ||X|| =      0.371834295 Max(X)(6,5) =     -0.306297863 
   --- SFit(Active Orbitals)

MACRO-ITERATION   4: 
   --- Inactive Energy E0 = 0.86974232 Eh
CI-ITERATION   0: 
    -1.154184534   0.000000000000 (    0.00)
   CI-PROBLEM SOLVED
   DENSITIES MADE
   E(CAS)=    -1.154184534 Eh DE=    -0.000081395
   --- Energy gap subspaces: Ext-Act = -3.457   Act-Int = 0.600
   N(occ)=  1.96894 0.01400 0.00835 0.00429 0.00429 0.00014
   ||g|| =      0.001216775 Max(G)=     0.000839383 Rot=10,0
   --- Orbital Update [SuperCI(PT)]
   --- Canonicalize Internal Space
   --- Canonicalize External Space
   --- SX_PT (Skipped TA=0 IT=0): ||X|| =      0.142079034 Max(X)(11,5) =      0.094933317 
   --- SFit(Active Orbitals)

MACRO-ITERATION   5: 
   --- Inactive Energy E0 = 0.86974232 Eh
CI-ITERATION   0: 
    -1.154207719   0.000000000000 (    0.00)
   CI-PROBLEM SOLVED
   DENSITIES MADE
   E(CAS)=    -1.154207719 Eh DE=    -0.000023184
   --- Energy gap subspaces: Ext-Act = -2.870   Act-Int = 0.600
   N(occ)=  1.96888 0.01407 0.00831 0.00428 0.00428 0.00017
   ||g|| =      0.001964023 Max(G)=    -0.001151091 Rot=23,0
   --- Orbital Update [SuperCI(PT)]
   --- Canonicalize Internal Space
   --- Canonicalize External Space
   --- SX_PT (Skipped TA=0 IT=0): ||X|| =      0.040657217 Max(X)(6,5) =      0.026908827 
   --- SFit(Active Orbitals)

MACRO-ITERATION   6: 
   --- Inactive Energy E0 = 0.86974232 Eh
CI-ITERATION   0: 
    -1.154210452   0.000000000000 (    0.00)
   CI-PROBLEM SOLVED
   DENSITIES MADE
   E(CAS)=    -1.154210452 Eh DE=    -0.000002733
   --- Energy gap subspaces: Ext-Act = -2.667   Act-Int = 0.600
   N(occ)=  1.96881 0.01410 0.00834 0.00428 0.00428 0.00019
   ||g|| =      0.001509976 Max(G)=     0.000719784 Rot=18,0
   --- Orbital Update [SuperCI(PT)]
   --- Canonicalize Internal Space
   --- Canonicalize External Space
   --- SX_PT (Skipped TA=0 IT=0): ||X|| =      0.024917416 Max(X)(6,5) =     -0.015526763 
   --- SFit(Active Orbitals)

MACRO-ITERATION   7: 
   --- Inactive Energy E0 = 0.86974232 Eh
CI-ITERATION   0: 
    -1.154210576   0.000000000000 (    0.00)
   CI-PROBLEM SOLVED
   DENSITIES MADE
   E(CAS)=    -1.154210576 Eh DE=    -0.000000124
   --- Energy gap subspaces: Ext-Act = -2.743   Act-Int = 0.600
   N(occ)=  1.96883 0.01409 0.00834 0.00428 0.00428 0.00018
   ||g|| =      0.000657106 Max(G)=    -0.000414790 Rot=23,0
   --- Orbital Update [SuperCI(PT)]
   --- Canonicalize Internal Space
   --- Canonicalize External Space
   --- SX_PT (Skipped TA=0 IT=0): ||X|| =      0.023073377 Max(X)(6,5) =      0.018389540 
   --- SFit(Active Orbitals)

MACRO-ITERATION   8: 
   --- Inactive Energy E0 = 0.86974232 Eh
CI-ITERATION   0: 
    -1.154211321   0.000000000000 (    0.00)
   CI-PROBLEM SOLVED
   DENSITIES MADE
   E(CAS)=    -1.154211321 Eh DE=    -0.000000744
   --- Energy gap subspaces: Ext-Act = -2.619   Act-Int = 0.600
   N(occ)=  1.96879 0.01410 0.00835 0.00429 0.00429 0.00019
   ||g|| =      0.000050133 Max(G)=     0.000028413 Rot=6,0
                     ---- THE CAS-SCF GRADIENT HAS CONVERGED ----
                            --- FINALIZING ORBITALS ---
                    ---- DOING ONE FINAL ITERATION FOR PRINTING ----
   --- Forming Natural Orbitals
   --- Canonicalize Internal Space
   --- Canonicalize External Space

MACRO-ITERATION   9: 
   --- Inactive Energy E0 = 0.86974232 Eh
   --- All densities will be recomputed
CI-ITERATION   0: 
    -1.154211321   0.000000000000 (    0.00)
   CI-PROBLEM SOLVED
   DENSITIES MADE
   E(CAS)=    -1.154211321 Eh DE=    -0.000000000
   --- Energy gap subspaces: Ext-Act = -2.892   Act-Int = 0.600
   N(occ)=  1.97062 0.01412 0.00652 0.00429 0.00429 0.00017
   ||g|| =      0.000050133 Max(G)=    -0.000027546 Rot=7,0
--------------
CASSCF RESULTS
--------------

Final CASSCF energy       : -1.154211321 Eh     -31.4077 eV


---------------------------------------------
CAS-SCF STATES FOR BLOCK  1 MULT= 1 NROOTS= 1
---------------------------------------------

ROOT   0:  E=      -1.1542113208 Eh
      0.98531 [     0]: 200000
      0.00706 [     6]: 020000
      0.00326 [    11]: 002000


--------------
DENSITY MATRIX
--------------

                  0          1          2          3          4          5    
      0       1.970618   0.000000   0.000000  -0.000000  -0.000000  -0.000000
      1       0.000000   0.014120   0.000000   0.000000  -0.000000  -0.000000
      2       0.000000   0.000000   0.006521   0.000000   0.000000  -0.000000
      3      -0.000000   0.000000   0.000000   0.004285   0.000000   0.000000
      4      -0.000000  -0.000000   0.000000   0.000000   0.004285  -0.000000
      5      -0.000000  -0.000000  -0.000000   0.000000  -0.000000   0.000169
Trace of the electron density:  2.000000

-----------------
ENERGY COMPONENTS
-----------------

One electron energy          :     -2.668051443 Eh         -72.6014 eV
Two electron energy          :      0.644097799 Eh          17.5268 eV
Nuclear repulsion energy     :      0.869742324 Eh          23.6669 eV
                               ----------------
                                   -1.154211321

Kinetic energy               :      1.325086372 Eh          36.0574 eV
Potential energy             :     -2.479297693 Eh         -67.4651 eV
Virial ratio                 :     -1.871046103 
                               ----------------
                                   -1.154211321

Core energy                  :      0.869742324 Eh       23.6669 eV


----------------------------
LOEWDIN REDUCED ACTIVE MOs  
----------------------------

                      0         1         2         3         4         5   
                  -0.63091   0.78588   1.03983   1.13488   1.13488   3.16300
                   1.97062   0.01412   0.00652   0.00429   0.00429   0.00017
                  --------  --------  --------  --------  --------  --------
 0 H  s              47.0      13.4      32.9       0.0       0.0      22.2
 0 H  pz              0.0       0.0       0.0      10.6      35.7       0.0
 0 H  px              2.5      31.6      14.2       0.0       0.0      15.1
 0 H  py              0.0       0.0       0.0      35.7      10.6       0.0
 0 H  dx2y2           0.3       3.3       1.9       0.0       0.0       5.8
 1 H  s              47.0      13.4      32.9       0.0       0.0      22.2
 1 H  pz              0.0       0.0       0.0      10.6      35.7       0.0
 1 H  px              2.5      31.6      14.2       0.0       0.0      15.1
 1 H  py              0.0       0.0       0.0      35.7      10.6       0.0
 1 H  dx2y2           0.3       3.3       1.9       0.0       0.0       5.8


-------------------------------------------------------------
 Forming the transition density       ... done in 0.001800 sec
-------------------------------------------------------------



==========================================
CASSCF UV, CD spectra and dipole moments
==========================================
-------------------
ABSORPTION SPECTRUM
-------------------

Center of mass           = (  0.5749,  0.0000,  0.0000)
Nuclear contribution to the dipole moment =     0.000000,    0.000000,    0.000000 au

Calculating the dipole integrals                  ... done
Transforming integrals                            ... done
Calculating the Linear Momentum integrals         ... done
Transforming integrals                            ... done
Calculating the Angular Momentum integrals        ... done
Transforming integrals                            ... done

Ground state mult:    1
Ground state block:   0
Ground state root:    0


------------------------------------------------------------------------------
                                 DIPOLE MOMENTS
------------------------------------------------------------------------------
  Root  Block           TX        TY        TZ           |T|
                      (Debye)   (Debye)   (Debye)      (Debye)
------------------------------------------------------------------------------
    0    0            0.00000  -0.00000   0.00000      0.00000

--------------
CASSCF TIMINGS
--------------

Total time                       ...        3.0 sec
Sum of individual times          ...        2.8 sec ( 94.3%)

Calculation of AO operators
   F(Core) operator              ...        0.0 sec (  0.7%)
   G(Act) operator               ...        0.8 sec ( 27.0%)
   J(AO) operators               ...        0.0 sec (  0.0%)
Calculation of MO transformed quantities
   J(MO) operators               ...        1.8 sec ( 59.5%)
   (pq|rs) integrals             ...        0.0 sec (  0.0%)
   AO->MO one electron integrals ...        0.0 sec (  0.0%)
Configuration interaction steps
   CI-setup phase                ...        0.0 sec (  0.0%)
   CI-solution phase             ...        0.2 sec (  6.1%)
   Generation of densities       ...        0.0 sec (  0.1%)
Orbital improvement steps
   Orbital gradient              ...        0.0 sec (  0.4%)
   O(1) converger                ...        0.0 sec (  0.2%)
Properties                       ...        0.0 sec (  0.2%)
   SOC integral calculation      ...        0.0 sec (  0.0%)
   SSC RMEs (incl. integrals)    ...        0.0 sec (  0.0%)
   SOC RMEs                      ...        0.0 sec (  0.0%)

-------------------------   --------------------
FINAL SINGLE POINT ENERGY        -1.154211320795
-------------------------   --------------------

Storing actual gbw-file in H2_0_1_CASSCF-2-6_def2-qzvpp.sp.002.gbw ... done

                            ***************************************
                            *     ORCA property calculations      *
                            ***************************************

                                    ---------------------
                                    Active property flags
                                    ---------------------
   (+) Dipole Moment


------------------------------------------------------------------------------
                       ORCA ELECTRIC PROPERTIES CALCULATION
------------------------------------------------------------------------------

Dipole Moment Calculation                       ... on
Quadrupole Moment Calculation                   ... off
Polarizability Calculation                      ... off
GBWName                                         ... H2_0_1_CASSCF-2-6_def2-qzvpp.sp.gbw
Electron density file                           ... H2_0_1_CASSCF-2-6_def2-qzvpp.sp.scfp
The origin for moment calculation is the CENTER OF MASS  = ( 0.574883,  0.000000  0.000000)

-------------
DIPOLE MOMENT
-------------
                                X             Y             Z
Electronic contribution:      0.00000      -0.00000       0.00000
Nuclear contribution   :      0.00000       0.00000       0.00000
                        -----------------------------------------
Total Dipole Moment    :      0.00000      -0.00000       0.00000
                        -----------------------------------------
Magnitude (a.u.)       :      0.00000
Magnitude (Debye)      :      0.00000



--------------------
Rotational spectrum 
--------------------
 
Rotational constants in cm-1:     0.000000    90.353569    90.353569 
Rotational constants in MHz :     0.000000 2708731.853415 2708731.853415 

 Dipole components along the rotational axes: 
x,y,z [a.u.] :     0.000000    -0.000000     0.000000 
x,y,z [Debye]:     0.000000    -0.000000     0.000000 

 

         *************************************************************
                                TRAJECTORY STEP   3
                RHH  :   0.73861998
         *************************************************************
---------------------------------
CARTESIAN COORDINATES (ANGSTROEM)
---------------------------------
  H      0.000000    0.000000    0.000000
  H      0.738620    0.000000    0.000000

----------------------------
CARTESIAN COORDINATES (A.U.)
----------------------------
  NO LB      ZA    FRAG     MASS         X           Y           Z
   0 H     1.0000    0     1.008    0.000000    0.000000    0.000000
   1 H     1.0000    0     1.008    1.395789    0.000000    0.000000

--------------------------------
INTERNAL COORDINATES (ANGSTROEM)
--------------------------------
 H      0   0   0     0.000000000000     0.00000000     0.00000000
 H      1   0   0     0.738619982208     0.00000000     0.00000000

---------------------------
INTERNAL COORDINATES (A.U.)
---------------------------
 H      0   0   0     0.000000000000     0.00000000     0.00000000
 H      1   0   0     1.395789483415     0.00000000     0.00000000


Diagonalization of the overlap matrix:
Smallest eigenvalue                        ... 1.599e-04
Time for diagonalization                   ...    0.002 sec
Threshold for overlap eigenvalues          ... 1.000e-08
Number of eigenvalues below threshold      ... 0
Time for construction of square roots      ...    0.002 sec
Total time needed                          ...    0.004 sec



 ... the calculation is a CASSCF calculation -I'm leaving here GOOD LUCK!!!

-------------------------------------------------------------------------------
                              ORCA-CASSCF
-------------------------------------------------------------------------------

Setting up the integral package       ... done
Building the CAS space                ... done (21 configurations for Mult=1)

SYSTEM-SPECIFIC SETTINGS:
Number of active electrons          ...    2
Number of active orbitals           ...    6
Total number of electrons           ...    2
Total number of orbitals            ...   60

Determined orbital ranges:
   Internal       0 -   -1 (   0 orbitals)
   Active         0 -    5 (   6 orbitals)
   External       6 -   59 (  54 orbitals)
Number of rotation parameters      ...    324

CI-STEP:
CI strategy                         ... General CI
Number of multiplicity blocks       ...    1
BLOCK  1 WEIGHT=   1.0000
  Multiplicity                      ...    1
  #(Configurations)                 ...   21
  #(CSFs)                           ...   21
  #(Roots)                          ...    1
    ROOT=0 WEIGHT=    1.000000

  PrintLevel                        ...    1
  N(GuessMat)                       ...       512
  MaxDim(CI)                        ...        10
  MaxIter(CI)                       ...        64
  Energy Tolerance CI               ...  2.50e-09
  Residual Tolerance CI             ...  2.50e-09
  Shift(CI)                         ...  1.00e-04

INTEGRAL-TRANSFORMATION-STEP:
  Algorithm                         ... EXACT

ORBITAL-IMPROVEMENT-STEP:
  Algorithm                         ... SuperCI(PT)
  Default Parametrization           ... CAYLEY
  Act-Act rotations                 ... depends on algorithm used

  Note: SuperCI(PT) will ignore FreezeIE, FreezeAct and FreezeGrad. In general Default settings are encouraged.
[...]

Storing actual gbw-file in H2_0_1_CASSCF-2-6_def2-qzvpp.sp.019.gbw ... done

                            ***************************************
                            *     ORCA property calculations      *
                            ***************************************

                                    ---------------------
                                    Active property flags
                                    ---------------------
   (+) Dipole Moment


------------------------------------------------------------------------------
                       ORCA ELECTRIC PROPERTIES CALCULATION
------------------------------------------------------------------------------

Dipole Moment Calculation                       ... on
Quadrupole Moment Calculation                   ... off
Polarizability Calculation                      ... off
GBWName                                         ... H2_0_1_CASSCF-2-6_def2-qzvpp.sp.gbw
Electron density file                           ... H2_0_1_CASSCF-2-6_def2-qzvpp.sp.scfp
The origin for moment calculation is the CENTER OF MASS  = (15.529531,  0.000000  0.000000)

-------------
DIPOLE MOMENT
-------------
                                X             Y             Z
Electronic contribution:     -0.00000       0.00000       0.00000
Nuclear contribution   :      0.00000       0.00000       0.00000
                        -----------------------------------------
Total Dipole Moment    :     -0.00000       0.00000       0.00000
                        -----------------------------------------
Magnitude (a.u.)       :      0.00000
Magnitude (Debye)      :      0.00000



--------------------
Rotational spectrum 
--------------------
 
Rotational constants in cm-1:     0.000000     0.123819     0.123819 
Rotational constants in MHz :     0.000000  3712.001304  3712.001304 

 Dipole components along the rotational axes: 
x,y,z [a.u.] :    -0.000000     0.000000     0.000000 
x,y,z [Debye]:    -0.000000     0.000000     0.000000 

 

         *************************************************************
                                TRAJECTORY STEP  20
                RHH  :  19.95262315
         *************************************************************
---------------------------------
CARTESIAN COORDINATES (ANGSTROEM)
---------------------------------
  H      0.000000    0.000000    0.000000
  H     19.952623    0.000000    0.000000

----------------------------
CARTESIAN COORDINATES (A.U.)
----------------------------
  NO LB      ZA    FRAG     MASS         X           Y           Z
   0 H     1.0000    0     1.008    0.000000    0.000000    0.000000
   1 H     1.0000    0     1.008   37.704993    0.000000    0.000000

--------------------------------
INTERNAL COORDINATES (ANGSTROEM)
--------------------------------
 H      0   0   0     0.000000000000     0.00000000     0.00000000
 H      1   0   0    19.952623149689     0.00000000     0.00000000

---------------------------
INTERNAL COORDINATES (A.U.)
---------------------------
 H      0   0   0     0.000000000000     0.00000000     0.00000000
 H      1   0   0    37.704993406249     0.00000000     0.00000000


Diagonalization of the overlap matrix:
Smallest eigenvalue                        ... 3.391e-02
Time for diagonalization                   ...    0.002 sec
Threshold for overlap eigenvalues          ... 1.000e-08
Number of eigenvalues below threshold      ... 0
Time for construction of square roots      ...    0.002 sec
Total time needed                          ...    0.003 sec



 ... the calculation is a CASSCF calculation -I'm leaving here GOOD LUCK!!!

-------------------------------------------------------------------------------
                              ORCA-CASSCF
-------------------------------------------------------------------------------

Setting up the integral package       ... done
Building the CAS space                ... done (21 configurations for Mult=1)

SYSTEM-SPECIFIC SETTINGS:
Number of active electrons          ...    2
Number of active orbitals           ...    6
Total number of electrons           ...    2
Total number of orbitals            ...   60

Determined orbital ranges:
   Internal       0 -   -1 (   0 orbitals)
   Active         0 -    5 (   6 orbitals)
   External       6 -   59 (  54 orbitals)
Number of rotation parameters      ...    324

CI-STEP:
CI strategy                         ... General CI
Number of multiplicity blocks       ...    1
BLOCK  1 WEIGHT=   1.0000
  Multiplicity                      ...    1
  #(Configurations)                 ...   21
  #(CSFs)                           ...   21
  #(Roots)                          ...    1
    ROOT=0 WEIGHT=    1.000000

  PrintLevel                        ...    1
  N(GuessMat)                       ...       512
  MaxDim(CI)                        ...        10
  MaxIter(CI)                       ...        64
  Energy Tolerance CI               ...  2.50e-09
  Residual Tolerance CI             ...  2.50e-09
  Shift(CI)                         ...  1.00e-04

INTEGRAL-TRANSFORMATION-STEP:
  Algorithm                         ... EXACT

ORBITAL-IMPROVEMENT-STEP:
  Algorithm                         ... SuperCI(PT)
  Default Parametrization           ... CAYLEY
  Act-Act rotations                 ... depends on algorithm used

  Note: SuperCI(PT) will ignore FreezeIE, FreezeAct and FreezeGrad. In general Default settings are encouraged.
        In conjunction with ShiftUp, ShiftDn or GradScaling the performance of SuperCI(PT) is less optimal.  

  MaxRot                            ... 2.00e-01 
  Max. no of vectors (DIIS)         ... 15
  DThresh (cut-off) metric          ... 1.00e-06
  Switch step at gradient           ...  3.00e-02 
  Switch step at iteration          ...        50   
  Switch step to                    ... SuperCI(PT)    

SCF-SETTINGS:
  Incremental                       ... on
  RIJCOSX approximation             ... off
  RI-JK approximation               ... off
  AO integral handling              ... DIRECT
  Integral Neglect Thresh           ...  2.50e-11
  Primitive cutoff TCut             ...  2.50e-12
  Energy convergence tolerance      ...  2.50e-08
  Orbital gradient convergence      ...  2.50e-04
  Max. number of iterations         ...        75  


FINAL ORBITALS:
  Active   Orbitals                 ... natural 
  Internal Orbitals                 ... canonical 
  External Orbitals                 ... canonical 

------------------
CAS-SCF ITERATIONS
------------------


MACRO-ITERATION   1: 
   --- Inactive Energy E0 = 0.02652169 Eh
CI-ITERATION   0: 
    -0.999966586   0.000000000000 (    0.00)
   CI-PROBLEM SOLVED
   DENSITIES MADE

                 <<<<<<<<<<<<<<<<<<INITIAL CI STATE CHECK>>>>>>>>>>>>>>>>>>

BLOCK  1 MULT= 1 NROOTS= 1 
ROOT   0:  E=      -0.9999665864 Eh
      0.50003 [     0]: 200000
      0.49997 [     6]: 020000

                 <<<<<<<<<<<<<<<<<<INITIAL CI STATE CHECK>>>>>>>>>>>>>>>>>>

   E(CAS)=    -0.999966586 Eh DE=     0.000000000
   --- Energy gap subspaces: Ext-Act = -0.792   Act-Int = 0.600
   N(occ)=  1.00006 0.99994 0.00000 0.00000 0.00000 0.00000
   ||g|| =      0.000193399 Max(G)=     0.000104951 Rot=6,0
                     ---- THE CAS-SCF GRADIENT HAS CONVERGED ----
                            --- FINALIZING ORBITALS ---
                    ---- DOING ONE FINAL ITERATION FOR PRINTING ----
   --- Forming Natural Orbitals
   --- Canonicalize Internal Space
   --- Canonicalize External Space

MACRO-ITERATION   2: 
   --- Inactive Energy E0 = 0.02652169 Eh
   --- All densities will be recomputed
CI-ITERATION   0: 
    -0.999966586   0.000000000000 (    0.00)
   CI-PROBLEM SOLVED
   DENSITIES MADE
   E(CAS)=    -0.999966586 Eh DE=     0.000000000
   --- Energy gap subspaces: Ext-Act = -0.792   Act-Int = 0.600
   N(occ)=  1.00006 0.99994 0.00000 0.00000 0.00000 0.00000
   ||g|| =      0.000193399 Max(G)=    -0.000104951 Rot=6,0
--------------
CASSCF RESULTS
--------------

Final CASSCF energy       : -0.999966586 Eh     -27.2105 eV


---------------------------------------------
CAS-SCF STATES FOR BLOCK  1 MULT= 1 NROOTS= 1
---------------------------------------------

ROOT   0:  E=      -0.9999665864 Eh
      0.50003 [     0]: 200000
      0.49997 [     6]: 020000


--------------
DENSITY MATRIX
--------------

                  0          1          2          3          4          5    
      0       1.000065   0.000000   0.000000  -0.000000  -0.000000  -0.000000
      1       0.000000   0.999935   0.000000  -0.000000  -0.000000   0.000000
      2       0.000000   0.000000   0.000000  -0.000000  -0.000000  -0.000000
      3      -0.000000  -0.000000  -0.000000   0.000000   0.000000   0.000000
      4      -0.000000  -0.000000  -0.000000   0.000000   0.000000  -0.000000
      5      -0.000000   0.000000  -0.000000   0.000000  -0.000000   0.000000
Trace of the electron density:  2.000000

-----------------
ENERGY COMPONENTS
-----------------

One electron energy          :     -1.053009929 Eh         -28.6539 eV
Two electron energy          :      0.026521657 Eh           0.7217 eV
Nuclear repulsion energy     :      0.026521686 Eh           0.7217 eV
                               ----------------
                                   -0.999966586

Kinetic energy               :      0.999911033 Eh          27.2090 eV
Potential energy             :     -1.999877620 Eh         -54.4194 eV
Virial ratio                 :     -2.000055558 
                               ----------------
                                   -0.999966586

Core energy                  :      0.026521686 Eh        0.7217 eV


----------------------------
LOEWDIN REDUCED ACTIVE MOs  
----------------------------

                      0         1         2         3         4         5   
                  -0.18749  -0.18747   0.58551   0.60860   0.60860   1.03692
                   1.00006   0.99994   0.00000   0.00000   0.00000   0.00000
                  --------  --------  --------  --------  --------  --------
 0 H  s              50.0      50.0       0.4       0.0       0.0      46.5
 0 H  pz              0.0       0.0       0.0      14.8      34.2       0.0
 0 H  px              0.0       0.0      49.2       0.0       0.0       3.4
 0 H  py              0.0       0.0       0.0      34.2      14.8       0.0
 1 H  s              50.0      50.0       0.4       0.0       0.0      46.5
 1 H  pz              0.0       0.0       0.0      14.8      34.2       0.0
 1 H  px              0.0       0.0      49.2       0.0       0.0       3.4
 1 H  py              0.0       0.0       0.0      34.2      14.8       0.0


-------------------------------------------------------------
 Forming the transition density       ... done in 0.002509 sec
-------------------------------------------------------------



==========================================
CASSCF UV, CD spectra and dipole moments
==========================================
-------------------
ABSORPTION SPECTRUM
-------------------

Center of mass           = ( 18.8525,  0.0000,  0.0000)
Nuclear contribution to the dipole moment =     0.000000,    0.000000,    0.000000 au

Calculating the dipole integrals                  ... done
Transforming integrals                            ... done
Calculating the Linear Momentum integrals         ... done
Transforming integrals                            ... done
Calculating the Angular Momentum integrals        ... done
Transforming integrals                            ... done

Ground state mult:    1
Ground state block:   0
Ground state root:    0


------------------------------------------------------------------------------
                                 DIPOLE MOMENTS
------------------------------------------------------------------------------
  Root  Block           TX        TY        TZ           |T|
                      (Debye)   (Debye)   (Debye)      (Debye)
------------------------------------------------------------------------------
    0    0            0.00000   0.00000   0.00000      0.00000

--------------
CASSCF TIMINGS
--------------

Total time                       ...        0.4 sec
Sum of individual times          ...        0.2 sec ( 67.5%)

Calculation of AO operators
   F(Core) operator              ...        0.0 sec (  1.3%)
   G(Act) operator               ...        0.0 sec (  7.4%)
   J(AO) operators               ...        0.0 sec (  0.0%)
Calculation of MO transformed quantities
   J(MO) operators               ...        0.2 sec ( 45.4%)
   (pq|rs) integrals             ...        0.0 sec (  0.0%)
   AO->MO one electron integrals ...        0.0 sec (  0.1%)
Configuration interaction steps
   CI-setup phase                ...        0.0 sec (  0.1%)
   CI-solution phase             ...        0.0 sec ( 10.1%)
   Generation of densities       ...        0.0 sec (  0.2%)
Orbital improvement steps
   Orbital gradient              ...        0.0 sec (  0.7%)
Properties                       ...        0.0 sec (  2.1%)
   SOC integral calculation      ...        0.0 sec (  0.0%)
   SSC RMEs (incl. integrals)    ...        0.0 sec (  0.0%)
   SOC RMEs                      ...        0.0 sec (  0.0%)

-------------------------   --------------------
FINAL SINGLE POINT ENERGY        -0.999966586420
-------------------------   --------------------

Storing actual gbw-file in H2_0_1_CASSCF-2-6_def2-qzvpp.sp.020.gbw ... done

                            ***************************************
                            *     ORCA property calculations      *
                            ***************************************

                                    ---------------------
                                    Active property flags
                                    ---------------------
   (+) Dipole Moment


------------------------------------------------------------------------------
                       ORCA ELECTRIC PROPERTIES CALCULATION
------------------------------------------------------------------------------

Dipole Moment Calculation                       ... on
Quadrupole Moment Calculation                   ... off
Polarizability Calculation                      ... off
GBWName                                         ... H2_0_1_CASSCF-2-6_def2-qzvpp.sp.gbw
Electron density file                           ... H2_0_1_CASSCF-2-6_def2-qzvpp.sp.scfp
The origin for moment calculation is the CENTER OF MASS  = (18.852497,  0.000000  0.000000)

-------------
DIPOLE MOMENT
-------------
                                X             Y             Z
Electronic contribution:      0.00000       0.00000       0.00000
Nuclear contribution   :     -0.00000       0.00000       0.00000
                        -----------------------------------------
Total Dipole Moment    :      0.00000       0.00000       0.00000
                        -----------------------------------------
Magnitude (a.u.)       :      0.00000
Magnitude (Debye)      :      0.00000



--------------------
Rotational spectrum 
--------------------
 
Rotational constants in cm-1:     0.000000     0.084017     0.084017 
Rotational constants in MHz :     0.000000  2518.761623  2518.761623 

 Dipole components along the rotational axes: 
x,y,z [a.u.] :     0.000000     0.000000     0.000000 
x,y,z [Debye]:     0.000000     0.000000     0.000000 

 
                              **** TRAJECTORY DONE ***

                         SUMMARY OF THE CALCULATED SURFACE

------------------
TRAJECTORY RESULTS
------------------

Column   1: RHH

The Calculated Surface using the 'Actual Energy'
   0.50118723  -1.10003068
   0.60842987  -1.15421132
   0.73861998  -1.17041458
   0.89666781  -1.15916017
   1.08853427  -1.12980832
   1.32145577  -1.09149731
   1.60421716  -1.05340654
   1.94748304  -1.02405053
   2.36419999  -1.00778724
   2.87008485  -1.00173066
   3.48421754  -1.00023867
   4.22976062  -0.99999704
   5.13483291  -0.99997012
   6.23357002  -0.99996729
   7.56741181  -0.99996678
   9.18666532  -0.99996664
  11.15240214  -0.99996660
  13.53876180  -0.99996659
  16.43574799  -0.99996659
  19.95262315  -0.99996659

                        *******************************
                        *   FIT OF THE ACT-ENERGY PES *
                        *******************************
-------------------------------
POTENTIAL ENERGY SURFACE =   0
-------------------------------

Minimum found after 23 iterations
Equilibrium distance and its energy from the interpolated PES:
  Re      =   0.72671 Angstroem  (  1.37328 Bohr)
  E(Re)   =    -1.170492 Eh 
  dE/dR   = -3.370e-09 (-1.163e-01 CHEB)
  d2E/dR2 =    0.337273 (   0.806583 CHEB) (  -0.012735 NUM)
  d3E/dR3 =   -4.221271 (  -3.065167 CHEB)

Spectroscopic constants:
  we =    4221.9 cm**-1 (based on SPLINE)
  we =    6529.0 cm**-1 (based on CHEB)
  we =      -nan cm**-1 (based on NUM)

Performing Morse fit ...
Morse-Fit Results:
 Te(adiabatic)   =    -355.2 cm**-1         = -0.044 eV
 d2E/dR**2 (Morse)=      0.406996121 
 d3E/dR**3 (Morse)=     -1.324654464 
 d4E/dR**4 (Morse)=      3.353285070 
 E0               =     -1.172110322 Eh  RMS=1.05e-06
 Re               =   0.74476 Angstroem      =  1.40739 Bohr RMS=8.33e-06)
 De(Morse)        =   4.70467 eV             =  37945.7 cm**-1 RMS=8.62e-07
 D0(Morse)        =   4.41716 eV
 beta             =   1.08490 au          RMS=1.64e-05
 we               =   4637.8 cm**-1
 wexe             =    141.6 cm**-1
 Displacement   =    0.0180 Angstroem      =  0.03411 Bohr

The Calculated Surface using the SCF energy
   0.50118723  -1.10003068
   0.60842987  -1.15421132
   0.73861998  -1.17041458
   0.89666781  -1.15916017
   1.08853427  -1.12980832
   1.32145577  -1.09149731
   1.60421716  -1.05340654
   1.94748304  -1.02405053
   2.36419999  -1.00778724
   2.87008485  -1.00173066
   3.48421754  -1.00023867
   4.22976062  -0.99999704
   5.13483291  -0.99997012
   6.23357002  -0.99996729
   7.56741181  -0.99996678
   9.18666532  -0.99996664
  11.15240214  -0.99996660
  13.53876180  -0.99996659
  16.43574799  -0.99996659
  19.95262315  -0.99996659

                        *******************************
                        *       FIT OF THE SCF PES    *
                        *******************************
-------------------------------
POTENTIAL ENERGY SURFACE =   0
-------------------------------

Minimum found after 23 iterations
Equilibrium distance and its energy from the interpolated PES:
  Re      =   0.72671 Angstroem  (  1.37328 Bohr)
  E(Re)   =    -1.170492 Eh 
  dE/dR   = -3.370e-09 (-1.163e-01 CHEB)
  d2E/dR2 =    0.337273 (   0.806583 CHEB) (  -0.012735 NUM)
  d3E/dR3 =   -4.221271 (  -3.065167 CHEB)

Spectroscopic constants:
  we =    4221.9 cm**-1 (based on SPLINE)
  we =    6529.0 cm**-1 (based on CHEB)
  we =      -nan cm**-1 (based on NUM)

Performing Morse fit ...
Morse-Fit Results:
 Te(adiabatic)   =    -355.2 cm**-1         = -0.044 eV
 d2E/dR**2 (Morse)=      0.406996121 
 d3E/dR**3 (Morse)=     -1.324654464 
 d4E/dR**4 (Morse)=      3.353285070 
 E0               =     -1.172110322 Eh  RMS=1.05e-06
 Re               =   0.74476 Angstroem      =  1.40739 Bohr RMS=8.33e-06)
 De(Morse)        =   4.70467 eV             =  37945.7 cm**-1 RMS=8.62e-07
 D0(Morse)        =   4.41716 eV
 beta             =   1.08490 au          RMS=1.64e-05
 we               =   4637.8 cm**-1
 wexe             =    141.6 cm**-1
 Displacement   =    0.0180 Angstroem      =  0.03411 Bohr


Timings for individual modules:

Sum of individual times         ...       98.093 sec (=   1.635 min)
GTO integral calculation        ...        4.923 sec (=   0.082 min)   5.0 %
SCF iterations                  ...        1.151 sec (=   0.019 min)   1.2 %
CASSCF iterations               ...       92.019 sec (=   1.534 min)  93.8 %
                             ****ORCA TERMINATED NORMALLY****
TOTAL RUN TIME: 0 days 0 hours 1 minutes 40 seconds 803 msec
