
                                 *****************
                                 * O   R   C   A *
                                 *****************

           --- An Ab Initio, DFT and Semiempirical electronic structure package ---

                  #######################################################
                  #                        -***-                        #
                  #          Department of theory and spectroscopy      #
                  #               Directorship: Frank Neese             #
                  #        Max Planck Institute fuer Kohlenforschung    #
                  #                Kaiser Wilhelm Platz 1               #
                  #                 D-45470 Muelheim/Ruhr               #
                  #                      Germany                        #
                  #                                                     #
                  #                  All rights reserved                #
                  #                        -***-                        #
                  #######################################################


                         Program Version 4.2.0 -  RELEASE  -


 With contributions from (in alphabetic order):
   Daniel Aravena         : Magnetic Suceptibility
   Michael Atanasov       : Ab Initio Ligand Field Theory (pilot matlab implementation)
   Alexander A. Auer      : GIAO ZORA, VPT2
   Ute Becker             : Parallelization
   Giovanni Bistoni       : ED, misc. LED, open-shell LED, HFLED
   Martin Brehm           : Molecular dynamics
   Dmytro Bykov           : SCF Hessian
   Vijay G. Chilkuri      : MRCI spin determinant printing, contributions to CSF-ICE
   Dipayan Datta          : RHF DLPNO-CCSD density
   Achintya Kumar Dutta   : EOM-CC, STEOM-CC
   Dmitry Ganyushin       : Spin-Orbit,Spin-Spin,Magnetic field MRCI
   Miquel Garcia          : C-PCM Hessian, Gaussian charge scheme
   Yang Guo               : DLPNO-NEVPT2, CIM, IAO-localization
   Andreas Hansen         : Spin unrestricted coupled pair/coupled cluster methods
   Benjamin Helmich-Paris : CASSCF linear response (MC-RPA)
   Lee Huntington         : MR-EOM, pCC
   Robert Izsak           : Overlap fitted RIJCOSX, COSX-SCS-MP3, EOM
   Christian Kollmar      : KDIIS, OOCD, Brueckner-CCSD(T), CCSD density
   Simone Kossmann        : Meta GGA functionals, TD-DFT gradient, OOMP2, MP2 Hessian
   Martin Krupicka        : AUTO-CI
   Lucas Lang             : DCDCAS
   Dagmar Lenk            : GEPOL surface, SMD
   Dimitrios Liakos       : Extrapolation schemes; Compound Job, initial MDCI parallelization
   Dimitrios Manganas     : Further ROCIS development; embedding schemes
   Dimitrios Pantazis     : SARC Basis sets
   Taras Petrenko         : DFT Hessian,TD-DFT gradient, ASA, ECA, R-Raman, ABS, FL, XAS/XES, NRVS
   Peter Pinski           : DLPNO-MP2, DLPNO-MP2 Gradient
   Christoph Reimann      : Effective Core Potentials
   Marius Retegan         : Local ZFS, SOC
   Christoph Riplinger    : Optimizer, TS searches, QM/MM, DLPNO-CCSD(T), (RO)-DLPNO pert. Triples
   Tobias Risthaus        : Range-separated hybrids, TD-DFT gradient, RPA, STAB
   Michael Roemelt        : Original ROCIS implementation
   Masaaki Saitow         : Open-shell DLPNO-CCSD energy and density
   Barbara Sandhoefer     : DKH picture change effects
   Avijit Sen             : IP-ROCIS
   Kantharuban Sivalingam : CASSCF convergence, NEVPT2, FIC-MRCI
   Bernardo de Souza      : ESD, SOC TD-DFT
   Georgi Stoychev        : AutoAux, RI-MP2 NMR
   Willem Van den Heuvel  : Paramagnetic NMR
   Boris Wezisla          : Elementary symmetry handling
   Frank Wennmohs         : Technical directorship


 We gratefully acknowledge several colleagues who have allowed us to
 interface, adapt or use parts of their codes:
   Stefan Grimme, W. Hujo, H. Kruse,             : VdW corrections, initial TS optimization,
                  C. Bannwarth                     DFT functionals, gCP, sTDA/sTD-DF
   Ed Valeev, F. Pavosevic, A. Kumar             : LibInt (2-el integral package), F12 methods
   Garnet Chan, S. Sharma, J. Yang, R. Olivares  : DMRG
   Ulf Ekstrom                                   : XCFun DFT Library
   Mihaly Kallay                                 : mrcc  (arbitrary order and MRCC methods)
   Andreas Klamt, Michael Diedenhofen            : otool_cosmo (COSMO solvation model)
   Jiri Pittner, Ondrej Demel                    : Mk-CCSD
   Frank Weinhold                                : gennbo (NPA and NBO analysis)
   Christopher J. Cramer and Donald G. Truhlar   : smd solvation model
   Lars Goerigk                                  : TD-DFT with DH, B97 family of functionals
   V. Asgeirsson, H. Jonsson                     : NEB implementation
   FAccTs GmbH                                   : IRC, NEB, NEB-TS, Multilevel, MM, QM/MM, CI optimization
   S Lehtola, MJT Oliveira, MAL Marques          : LibXC Library


 Your calculation uses the libint2 library for the computation of 2-el integrals
 For citations please refer to: http://libint.valeyev.net

 Your ORCA version has been built with support for libXC version: 4.2.3
 For citations please refer to: https://tddft.org/programs/libxc/

 This ORCA versions uses:
   CBLAS   interface :  Fast vector & matrix operations
   LAPACKE interface :  Fast linear algebra routines
   SCALAPACK package :  Parallel linear algebra routines


----- Orbital basis set information -----
Your calculation utilizes the basis: def2-QZVPP
   F. Weigend and R. Ahlrichs, Phys. Chem. Chem. Phys. 7, 3297 (2005).

================================================================================
                                        WARNINGS
                       Please study these warnings very carefully!
================================================================================


INFO   : the flag for use of LIBINT has been found!

================================================================================
                                       INPUT FILE
================================================================================
NAME = H2_0_1_CASSCF-2-4_def2-qzvpp.sp.inp
|  1> !rhf def2-qzvpp tightscf 
|  2> !normalprint
|  3> 
|  4> %paras
|  5> #  rHH [19.952623149688797 16.43574799372698 13.538761800225439 11.152402139117903 9.1866653175426 7.567411809920191 6.233570019315557 5.134832907437553 4.229760619613384 3.4842175435383975 2.870084854071569 2.3641999865500756 1.9474830399087562 1.6042171611153242 1.32145576997553 1.088534267260644 0.8966678097917788 0.7386199822079362 0.6084298690766428 0.5011872336272722]
|  6>   rHH [0.5011872336272722 0.6084298690766428 0.7386199822079362 0.8966678097917788 1.088534267260644 1.32145576997553 1.6042171611153242 1.9474830399087562 2.3641999865500756 2.870084854071569 3.4842175435383975 4.229760619613384 5.134832907437553 6.233570019315557 7.567411809920191 9.1866653175426 11.152402139117903 13.538761800225439 16.43574799372698 19.952623149688797]
|  7> end
|  8> 
|  9> %scf
| 10>   maxiter 500
| 11> end
| 12> 
| 13> %casscf
| 14>   nel 2
| 15>   norb 4
| 16> end
| 17> 
| 18> *int 0 1
| 19> H 0 0 0 0 0 0
| 20> H 1 0 0 {rHH} 0 0
| 21> *
| 22> 
| 23>                          ****END OF INPUT****
================================================================================

                       ******************************
                       * Parameter Scan Calculation *
                       ******************************

Trajectory settings:
    -> SCF surface will be mapped

There are 1 parameter(s) to be scanned
           RHH: user defined at 20 points
There will be   20 energy evaluations


         *************************************************************
                                TRAJECTORY STEP   1
                RHH  :   0.50118723
         *************************************************************
---------------------------------
CARTESIAN COORDINATES (ANGSTROEM)
---------------------------------
  H      0.000000    0.000000    0.000000
  H      0.501187    0.000000    0.000000

----------------------------
CARTESIAN COORDINATES (A.U.)
----------------------------
  NO LB      ZA    FRAG     MASS         X           Y           Z
   0 H     1.0000    0     1.008    0.000000    0.000000    0.000000
   1 H     1.0000    0     1.008    0.947107    0.000000    0.000000

--------------------------------
INTERNAL COORDINATES (ANGSTROEM)
--------------------------------
 H      0   0   0     0.000000000000     0.00000000     0.00000000
 H      1   0   0     0.501187233627     0.00000000     0.00000000

---------------------------
INTERNAL COORDINATES (A.U.)
---------------------------
 H      0   0   0     0.000000000000     0.00000000     0.00000000
 H      1   0   0     0.947106613373     0.00000000     0.00000000

---------------------
BASIS SET INFORMATION
---------------------
There are 1 groups of distinct atoms

 Group   1 Type H   : 7s3p2d1f contracted to 4s3p2d1f pattern {4111/111/11/1}

Atom   0H    basis set group =>   1
Atom   1H    basis set group =>   1
------------------------------------------------------------------------------
                           ORCA GTO INTEGRAL CALCULATION
------------------------------------------------------------------------------

                         BASIS SET STATISTICS AND STARTUP INFO

 # of primitive gaussian shells          ...   26
 # of primitive gaussian functions       ...   66
 # of contracted shells                  ...   20
 # of contracted basis functions         ...   60
 Highest angular momentum                ...    3
 Maximum contraction depth               ...    4
 Integral package used                   ... LIBINT
 Integral threshhold            Thresh   ...  2.500e-11
 Primitive cut-off              TCut     ...  2.500e-12


------------------------------ INTEGRAL EVALUATION ----------------------------


 * One electron integrals 
 Pre-screening matrix                    ... done
 Shell pair data                         ... done (   0.000 sec)

-------------------------------------------------------------------------------
                                 ORCA SCF
-------------------------------------------------------------------------------

------------
SCF SETTINGS
------------
Hamiltonian:
 Ab initio Hamiltonian  Method          .... Hartree-Fock(GTOs)


General Settings:
 Integral files         IntName         .... H2_0_1_CASSCF-2-4_def2-qzvpp.sp
 Hartree-Fock type      HFTyp           .... CASSCF
 Total Charge           Charge          ....    0
 Multiplicity           Mult            ....    1
 Number of Electrons    NEL             ....    2
 Basis Dimension        Dim             ....   60
 Nuclear Repulsion      ENuc            ....      1.0558473417 Eh


Diagonalization of the overlap matrix:
Smallest eigenvalue                        ... 5.708e-05
Time for diagonalization                   ...    0.001 sec
Threshold for overlap eigenvalues          ... 1.000e-08
Number of eigenvalues below threshold      ... 0
Time for construction of square roots      ...    0.003 sec
Total time needed                          ...    0.004 sec

-------------------
DFT GRID GENERATION
-------------------

General Integration Accuracy     IntAcc      ...  4.340
Radial Grid Type                 RadialGrid  ... Gauss-Chebyshev
Angular Grid (max. acc.)         AngularGrid ... Lebedev-110
Angular grid pruning method      GridPruning ... 3 (G Style)
Weight generation scheme         WeightScheme... Becke
Basis function cutoff            BFCut       ...    1.0000e-11
Integration weight cutoff        WCut        ...    1.0000e-14
Grids for H and He will be reduced by one unit

# of grid points (after initial pruning)     ...   1588 (   0.0 sec)
# of grid points (after weights+screening)   ...   1560 (   0.0 sec)
nearest neighbour list constructed           ...    0.0 sec
Grid point re-assignment to atoms done       ...    0.0 sec
Grid point division into batches done        ...    0.0 sec
Reduced shell lists constructed in    0.0 sec

Total number of grid points                  ...     1560
Total number of batches                      ...       26
Average number of points per batch           ...       60
Average number of grid points per atom       ...      780
Average number of shells per batch           ...    19.15 (95.74%)
Average number of basis functions per batch  ...    57.44 (95.74%)
Average number of large shells per batch     ...    18.78 (98.07%)
Average number of large basis fcns per batch ...    56.19 (97.81%)
Maximum spatial batch extension              ...  15.26, 21.59, 21.59 au
Average spatial batch extension              ...   4.46,  7.66,  7.77 au

Time for grid setup =    0.007 sec

------------------------------
INITIAL GUESS: MODEL POTENTIAL
------------------------------
Loading Hartree-Fock densities                     ... done
Calculating cut-offs                               ... done
Setting up the integral package                    ... done
Initializing the effective Hamiltonian             ... done
Starting the Coulomb interaction                   ... done (   0.0 sec)
Reading the grid                                   ... done
Mapping shells                                     ... done
Starting the XC term evaluation                    ... done (   0.0 sec)
Transforming the Hamiltonian                       ... done (   0.0 sec)
Diagonalizing the Hamiltonian                      ... done (   0.0 sec)
Back transforming the eigenvectors                 ... done (   0.0 sec)
Now organizing SCF variables                       ... done
                      ------------------
                      INITIAL GUESS DONE (   0.1 sec)
                      ------------------


 ... the calculation is a CASSCF calculation -I'm leaving here GOOD LUCK!!!

-------------------------------------------------------------------------------
                              ORCA-CASSCF
-------------------------------------------------------------------------------

Setting up the integral package       ... done
Building the CAS space                ... done (10 configurations for Mult=1)

SYSTEM-SPECIFIC SETTINGS:
Number of active electrons          ...    2
Number of active orbitals           ...    4
Total number of electrons           ...    2
Total number of orbitals            ...   60

Determined orbital ranges:
   Internal       0 -   -1 (   0 orbitals)
   Active         0 -    3 (   4 orbitals)
   External       4 -   59 (  56 orbitals)
Number of rotation parameters      ...    224

CI-STEP:
CI strategy                         ... General CI
Number of multiplicity blocks       ...    1
BLOCK  1 WEIGHT=   1.0000
  Multiplicity                      ...    1
  #(Configurations)                 ...   10
  #(CSFs)                           ...   10
  #(Roots)                          ...    1
    ROOT=0 WEIGHT=    1.000000

  PrintLevel                        ...    1
  N(GuessMat)                       ...       512
  MaxDim(CI)                        ...        10
  MaxIter(CI)                       ...        64
  Energy Tolerance CI               ...  2.50e-09
  Residual Tolerance CI             ...  2.50e-09
  Shift(CI)                         ...  1.00e-04

INTEGRAL-TRANSFORMATION-STEP:
  Algorithm                         ... EXACT

ORBITAL-IMPROVEMENT-STEP:
  Algorithm                         ... SuperCI(PT)
  Default Parametrization           ... CAYLEY
  Act-Act rotations                 ... depends on algorithm used

  Note: SuperCI(PT) will ignore FreezeIE, FreezeAct and FreezeGrad. In general Default settings are encouraged.
        In conjunction with ShiftUp, ShiftDn or GradScaling the performance of SuperCI(PT) is less optimal.  

  MaxRot                            ... 2.00e-01 
  Max. no of vectors (DIIS)         ... 15
  DThresh (cut-off) metric          ... 1.00e-06
  Switch step at gradient           ...  3.00e-02 
  Switch step at iteration          ...        50   
  Switch step to                    ... SuperCI(PT)    

SCF-SETTINGS:
  Incremental                       ... on
  RIJCOSX approximation             ... off
  RI-JK approximation               ... off
  AO integral handling              ... DIRECT
  Integral Neglect Thresh           ...  2.50e-11
  Primitive cutoff TCut             ...  2.50e-12
  Energy convergence tolerance      ...  2.50e-08
  Orbital gradient convergence      ...  2.50e-04
  Max. number of iterations         ...        75  


FINAL ORBITALS:
  Active   Orbitals                 ... natural 
  Internal Orbitals                 ... canonical 
  External Orbitals                 ... canonical 

------------------
CAS-SCF ITERATIONS
------------------


MACRO-ITERATION   1: 
   --- Inactive Energy E0 = 1.05584734 Eh
CI-ITERATION   0: 
    -1.066113408   0.000000000000 (    0.00)
   CI-PROBLEM SOLVED
   DENSITIES MADE

                 <<<<<<<<<<<<<<<<<<INITIAL CI STATE CHECK>>>>>>>>>>>>>>>>>>

BLOCK  1 MULT= 1 NROOTS= 1 
ROOT   0:  E=      -1.0661134076 Eh
      0.99170 [     0]: 2000
      0.00580 [     2]: 1010

                 <<<<<<<<<<<<<<<<<<INITIAL CI STATE CHECK>>>>>>>>>>>>>>>>>>

   E(CAS)=    -1.066113408 Eh DE=     0.000000000
   --- Energy gap subspaces: Ext-Act = 0.000   Act-Int = 0.600
   N(occ)=  1.98919 0.00095 0.00733 0.00254
   ||g|| =      0.273541266 Max(G)=     0.176655447 Rot=24,0
   --- Orbital Update [SuperCI(PT)]
   --- Canonicalize Internal Space
   --- Canonicalize External Space
   --- SX_PT (Skipped TA=0 IT=0): ||X|| =      1.398151797 Max(X)(4,1) =     -0.735621428 
   --- SFit(Active Orbitals)

MACRO-ITERATION   2: 
   --- Inactive Energy E0 = 1.05584734 Eh
CI-ITERATION   0: 
    -1.078809233   0.000000000000 (    0.00)
   CI-PROBLEM SOLVED
   DENSITIES MADE
   E(CAS)=    -1.078809233 Eh DE=    -0.012695825
   --- Energy gap subspaces: Ext-Act = -0.132   Act-Int = 0.600
   N(occ)=  1.97355 0.00596 0.01607 0.00443
   ||g|| =      0.129146362 Max(G)=    -0.115273375 Rot=9,0
   --- Orbital Update [SuperCI(PT)]
   --- Canonicalize Internal Space
   --- Canonicalize External Space
   --- SX_PT (Skipped TA=0 IT=0): ||X|| =      0.745776103 Max(X)(4,1) =     -0.434370660 
   --- SFit(Active Orbitals)

MACRO-ITERATION   3: 
   --- Inactive Energy E0 = 1.05584734 Eh
CI-ITERATION   0: 
    -1.093252704   0.000000000000 (    0.00)
   CI-PROBLEM SOLVED
   DENSITIES MADE
   E(CAS)=    -1.093252704 Eh DE=    -0.014443472
   --- Energy gap subspaces: Ext-Act = -0.750   Act-Int = 0.600
   N(occ)=  1.97199 0.00884 0.01508 0.00409
   ||g|| =      0.069077183 Max(G)=    -0.040899322 Rot=9,0
   --- Orbital Update [SuperCI(PT)]
   --- Canonicalize Internal Space
   --- Canonicalize External Space
   --- SX_PT (Skipped TA=0 IT=0): ||X|| =      0.141329371 Max(X)(10,2) =     -0.081371092 
   --- SFit(Active Orbitals)

MACRO-ITERATION   4: 
   --- Inactive Energy E0 = 1.05584734 Eh
CI-ITERATION   0: 
    -1.093900241   0.000000000000 (    0.00)
   CI-PROBLEM SOLVED
   DENSITIES MADE
   E(CAS)=    -1.093900241 Eh DE=    -0.000647537
   --- Energy gap subspaces: Ext-Act = -0.635   Act-Int = 0.600
   N(occ)=  1.97044 0.01010 0.01505 0.00441
   ||g|| =      0.021829519 Max(G)=    -0.018890712 Rot=9,0
   --- Orbital Update [SuperCI(PT)]
   --- Canonicalize Internal Space
   --- Canonicalize External Space
   --- SX_PT (Skipped TA=0 IT=0): ||X|| =      0.099068459 Max(X)(4,1) =     -0.069082285 
   --- SFit(Active Orbitals)

MACRO-ITERATION   5: 
   --- Inactive Energy E0 = 1.05584734 Eh
CI-ITERATION   0: 
    -1.094004241   0.000000000000 (    0.00)
   CI-PROBLEM SOLVED
   DENSITIES MADE
   E(CAS)=    -1.094004241 Eh DE=    -0.000103999
   --- Energy gap subspaces: Ext-Act = -0.753   Act-Int = 0.600
   N(occ)=  1.97200 0.01011 0.01374 0.00414
   ||g|| =      0.016890655 Max(G)=     0.013240544 Rot=9,0
   --- Orbital Update [SuperCI(PT)]
   --- Canonicalize Internal Space
   --- Canonicalize External Space
   --- SX_PT (Skipped TA=0 IT=0): ||X|| =      0.089638310 Max(X)(4,1) =     -0.072108595 
   --- SFit(Active Orbitals)

MACRO-ITERATION   6: 
   --- Inactive Energy E0 = 1.05584734 Eh
CI-ITERATION   0: 
    -1.094220042   0.000000000000 (    0.00)
   CI-PROBLEM SOLVED
   DENSITIES MADE
   E(CAS)=    -1.094220042 Eh DE=    -0.000215802
   --- Energy gap subspaces: Ext-Act = -0.724   Act-Int = 0.600
   N(occ)=  1.97155 0.01010 0.01413 0.00421
   ||g|| =      0.004914746 Max(G)=     0.004164877 Rot=24,0
   --- Orbital Update [SuperCI(PT)]
   --- Canonicalize Internal Space
   --- Canonicalize External Space
   --- SX_PT (Skipped TA=0 IT=0): ||X|| =      0.007251073 Max(X)(4,1) =      0.006357407 
   --- SFit(Active Orbitals)

MACRO-ITERATION   7: 
   --- Inactive Energy E0 = 1.05584734 Eh
CI-ITERATION   0: 
    -1.094223214   0.000000000000 (    0.00)
   CI-PROBLEM SOLVED
   DENSITIES MADE
   E(CAS)=    -1.094223214 Eh DE=    -0.000003172
   --- Energy gap subspaces: Ext-Act = -0.730   Act-Int = 0.600
   N(occ)=  1.97170 0.01013 0.01397 0.00419
   ||g|| =      0.000513562 Max(G)=    -0.000300121 Rot=48,0
   --- Orbital Update [SuperCI(PT)]
   --- Canonicalize Internal Space
   --- Canonicalize External Space
   --- SX_PT (Skipped TA=0 IT=0): ||X|| =      0.001103398 Max(X)(7,1) =      0.000646598 
   --- SFit(Active Orbitals)

MACRO-ITERATION   8: 
   --- Inactive Energy E0 = 1.05584734 Eh
CI-ITERATION   0: 
    -1.094223258   0.000000000000 (    0.00)
   CI-PROBLEM SOLVED
   DENSITIES MADE
   E(CAS)=    -1.094223258 Eh DE=    -0.000000044
   --- Energy gap subspaces: Ext-Act = -0.730   Act-Int = 0.600
   N(occ)=  1.97170 0.01014 0.01397 0.00420
   ||g|| =      0.000155532 Max(G)=     0.000102034 Rot=24,0
                     ---- THE CAS-SCF GRADIENT HAS CONVERGED ----
                            --- FINALIZING ORBITALS ---
                    ---- DOING ONE FINAL ITERATION FOR PRINTING ----
   --- Forming Natural Orbitals
   --- Canonicalize Internal Space
   --- Canonicalize External Space

MACRO-ITERATION   9: 
   --- Inactive Energy E0 = 1.05584734 Eh
   --- All densities will be recomputed
CI-ITERATION   0: 
    -1.094223258   0.000000000000 (    0.00)
   CI-PROBLEM SOLVED
   DENSITIES MADE
   E(CAS)=    -1.094223258 Eh DE=    -0.000000000
   --- Energy gap subspaces: Ext-Act = -1.073   Act-Int = 0.600
   N(occ)=  1.97857 0.01014 0.00710 0.00420
   ||g|| =      0.000155532 Max(G)=     0.000094147 Rot=23,0
--------------
CASSCF RESULTS
--------------

Final CASSCF energy       : -1.094223258 Eh     -29.7753 eV

----------------
ORBITAL ENERGIES
----------------

  NO   OCC          E(Eh)            E(eV) 
   0   1.9786      -0.675746       -18.3880 
   1   0.0101       1.015220        27.6255 
   2   0.0071       1.125096        30.6154 
   3   0.0042       1.268735        34.5240 
   4   0.0000       0.195774         5.3273 
   5   0.0000       0.440386        11.9835 
   6   0.0000       0.533123        14.5070 
   7   0.0000       0.782842        21.3022 
   8   0.0000       0.799558        21.7571 
   9   0.0000       0.799742        21.7621 
  10   0.0000       0.849469        23.1152 
  11   0.0000       1.578744        42.9598 
  12   0.0000       1.729975        47.0750 
  13   0.0000       1.999691        54.4144 
  14   0.0000       1.999697        54.4145 
  15   0.0000       2.195615        59.7457 
  16   0.0000       2.221025        60.4372 
  17   0.0000       2.221215        60.4423 
  18   0.0000       2.508496        68.2596 
  19   0.0000       2.557976        69.6061 
  20   0.0000       2.557989        69.6064 
  21   0.0000       2.610561        71.0370 
  22   0.0000       2.622047        71.3495 
  23   0.0000       2.712749        73.8177 
  24   0.0000       2.755970        74.9938 
  25   0.0000       3.834903       104.3530 
  26   0.0000       4.202584       114.3581 
  27   0.0000       4.202926       114.3674 
  28   0.0000       5.775306       157.1541 
  29   0.0000       5.775437       157.1576 
  30   0.0000       6.064016       165.0103 
  31   0.0000       6.801922       185.0897 
  32   0.0000       6.875027       187.0790 
  33   0.0000       6.875038       187.0793 
  34   0.0000       6.902039       187.8140 
  35   0.0000       6.902057       187.8145 
  36   0.0000       7.020116       191.0271 
  37   0.0000       7.072051       192.4403 
  38   0.0000       7.110454       193.4853 
  39   0.0000       7.110875       193.4967 
  40   0.0000       7.118580       193.7064 
  41   0.0000       7.118580       193.7064 
  42   0.0000       7.231714       196.7849 
  43   0.0000       7.286051       198.2635 
  44   0.0000       7.666735       208.6225 
  45   0.0000       7.745023       210.7528 
  46   0.0000       7.894547       214.8216 
  47   0.0000       7.894560       214.8219 
  48   0.0000       8.715314       237.1558 
  49   0.0000       9.060493       246.5486 
  50   0.0000       9.060885       246.5592 
  51   0.0000      10.664666       290.2003 
  52   0.0000      10.664819       290.2045 
  53   0.0000      11.371186       309.4257 
  54   0.0000      11.371198       309.4260 
  55   0.0000      11.992144       326.3228 
  56   0.0000      15.140813       412.0025 
  57   0.0000      15.141285       412.0153 
  58   0.0000      15.969118       434.5418 
  59   0.0000      18.590742       505.8798 


---------------------------------------------
CAS-SCF STATES FOR BLOCK  1 MULT= 1 NROOTS= 1
---------------------------------------------

ROOT   0:  E=      -1.0942232583 Eh
      0.98928 [     0]: 2000
      0.00507 [     4]: 0200
      0.00355 [     7]: 0020


--------------
DENSITY MATRIX
--------------

                   0          1          2          3    
      0       1.978565  -0.000000  -0.000000  -0.000000
      1      -0.000000   0.010137  -0.000000   0.000000
      2      -0.000000  -0.000000   0.007102  -0.000000
      3      -0.000000   0.000000  -0.000000   0.004196
Trace of the electron density:  2.000000

-----------------
ENERGY COMPONENTS
-----------------

One electron energy          :     -2.853262651 Eh         -77.6412 eV
Two electron energy          :      0.703192051 Eh          19.1348 eV
Nuclear repulsion energy     :      1.055847342 Eh          28.7311 eV
                               ----------------
                                   -1.094223258

Kinetic energy               :      1.485742751 Eh          40.4291 eV
Potential energy             :     -2.579966009 Eh         -70.2044 eV
Virial ratio                 :     -1.736482313 
                               ----------------
                                   -1.094223258

Core energy                  :      1.055847342 Eh       28.7311 eV


----------------------------
LOEWDIN ORBITAL-COMPOSITIONS
----------------------------

                      0         1         2         3         4         5   
                  -0.67575   1.01522   1.12510   1.26874   0.19577   0.44039
                   1.97857   0.01014   0.00710   0.00420   0.00000   0.00000
                  --------  --------  --------  --------  --------  --------
 0 H  s              47.2      10.1      34.8       0.0      47.6      48.4
 0 H  pz              0.0       0.0       0.0      46.7       0.0       0.0
 0 H  px              2.4      34.9      13.1       0.0       2.1       1.6
 0 H  dz2             0.1       1.1       0.5       0.0       0.1       0.0
 0 H  dxz             0.0       0.0       0.0       3.1       0.0       0.0
 0 H  dx2y2           0.2       3.4       1.5       0.0       0.2       0.0
 0 H  f+1             0.0       0.2       0.1       0.0       0.0       0.0
 0 H  f+3             0.0       0.3       0.1       0.0       0.0       0.0
 1 H  s              47.2      10.1      34.8       0.0      47.6      48.4
 1 H  pz              0.0       0.0       0.0      46.7       0.0       0.0
 1 H  px              2.4      34.9      13.1       0.0       2.1       1.6
 1 H  dz2             0.1       1.1       0.5       0.0       0.1       0.0
 1 H  dxz             0.0       0.0       0.0       3.1       0.0       0.0
 1 H  dx2y2           0.2       3.4       1.5       0.0       0.2       0.0
 1 H  f+1             0.0       0.2       0.1       0.0       0.0       0.0
 1 H  f+3             0.0       0.3       0.1       0.0       0.0       0.0

                      6         7         8         9        10        11   
                   0.53312   0.78284   0.79956   0.79974   0.84947   1.57874
                   0.00000   0.00000   0.00000   0.00000   0.00000   0.00000
                  --------  --------  --------  --------  --------  --------
 0 H  s               0.0      36.9       0.0       0.0       2.8       0.0
 0 H  pz              0.0       0.0       0.0      40.7       0.0      47.8
 0 H  px              0.0      13.1       0.0       0.0      35.6       0.0
 0 H  py             49.9       0.0      40.7       0.0       0.0       0.0
 0 H  dz2             0.0       0.0       0.0       0.0       2.9       0.0
 0 H  dxz             0.0       0.0       0.0       9.3       0.0       2.0
 0 H  dx2y2           0.0       0.1       0.0       0.0       8.7       0.0
 0 H  dxy             0.1       0.0       9.3       0.0       0.0       0.0
 0 H  f+2             0.0       0.0       0.0       0.0       0.0       0.1
 1 H  s               0.0      36.9       0.0       0.0       2.8       0.0
 1 H  pz              0.0       0.0       0.0      40.7       0.0      47.8
 1 H  px              0.0      13.1       0.0       0.0      35.6       0.0
 1 H  py             49.9       0.0      40.7       0.0       0.0       0.0
 1 H  dz2             0.0       0.0       0.0       0.0       2.9       0.0
 1 H  dxz             0.0       0.0       0.0       9.3       0.0       2.0
 1 H  dx2y2           0.0       0.1       0.0       0.0       8.7       0.0
 1 H  dxy             0.1       0.0       9.3       0.0       0.0       0.0
 1 H  f+2             0.0       0.0       0.0       0.0       0.0       0.1

                     12        13        14        15        16        17   
                   1.72998   1.99969   1.99970   2.19561   2.22103   2.22122
                   0.00000   0.00000   0.00000   0.00000   0.00000   0.00000
                  --------  --------  --------  --------  --------  --------
 0 H  s              14.0       0.0       0.0       0.0       0.0       0.0
 0 H  pz              0.0       0.0       0.0       0.0       0.0      11.2
 0 H  px             25.5       0.0       0.0       0.0       0.0       0.0
 0 H  py              0.0       0.0       0.0      48.1      11.2       0.0
 0 H  dz2             2.6      37.4       0.0       0.0       0.0       0.0
 0 H  dxz             0.0       0.0       0.0       0.0       0.0      38.7
 0 H  dyz             0.0       0.0      49.9       0.0       0.0       0.0
 0 H  dx2y2           7.8      12.5       0.0       0.0       0.0       0.0
 0 H  dxy             0.0       0.0       0.0       1.5      38.7       0.0
 0 H  f-3             0.0       0.0       0.0       0.4       0.0       0.0
 1 H  s              14.0       0.0       0.0       0.0       0.0       0.0
 1 H  pz              0.0       0.0       0.0       0.0       0.0      11.2
 1 H  px             25.5       0.0       0.0       0.0       0.0       0.0
 1 H  py              0.0       0.0       0.0      48.1      11.2       0.0
 1 H  dz2             2.6      37.4       0.0       0.0       0.0       0.0
 1 H  dxz             0.0       0.0       0.0       0.0       0.0      38.7
 1 H  dyz             0.0       0.0      49.9       0.0       0.0       0.0
 1 H  dx2y2           7.8      12.5       0.0       0.0       0.0       0.0
 1 H  dxy             0.0       0.0       0.0       1.5      38.7       0.0
 1 H  f-3             0.0       0.0       0.0       0.4       0.0       0.0

                     18        19        20        21        22        23   
                   2.50850   2.55798   2.55799   2.61056   2.62205   2.71275
                   0.00000   0.00000   0.00000   0.00000   0.00000   0.00000
                  --------  --------  --------  --------  --------  --------
 0 H  s               0.5       0.0       0.0       0.0       0.0      36.2
 0 H  pz              0.0       0.0       0.0       4.4       0.0       0.0
 0 H  px             22.1       0.0       0.0       0.0       0.0       8.9
 0 H  py              0.0       0.0       0.0       0.0       1.3       0.0
 0 H  dz2             6.7      32.1       0.0       0.0       0.0       1.2
 0 H  dxz             0.0       0.0       0.0      40.5       0.0       0.0
 0 H  dyz             0.0       0.0      42.7       0.0       0.0       0.0
 0 H  dx2y2          20.2      10.6       0.0       0.0       0.0       3.7
 0 H  dxy             0.0       0.0       0.0       0.0      43.8       0.0
 0 H  f0              0.0       0.0       0.0       1.9       0.0       0.0
 0 H  f+1             0.1       4.6       0.0       0.0       0.0       0.0
 0 H  f-1             0.0       0.0       0.0       0.0       0.3       0.0
 0 H  f+2             0.0       0.0       0.0       3.2       0.0       0.0
 0 H  f-2             0.0       0.0       7.3       0.0       0.0       0.0
 0 H  f+3             0.2       2.7       0.0       0.0       0.0       0.0
 0 H  f-3             0.0       0.0       0.0       0.0       4.5       0.0
 1 H  s               0.5       0.0       0.0       0.0       0.0      36.2
 1 H  pz              0.0       0.0       0.0       4.4       0.0       0.0
 1 H  px             22.1       0.0       0.0       0.0       0.0       8.9
 1 H  py              0.0       0.0       0.0       0.0       1.3       0.0
 1 H  dz2             6.7      32.1       0.0       0.0       0.0       1.2
 1 H  dxz             0.0       0.0       0.0      40.5       0.0       0.0
 1 H  dyz             0.0       0.0      42.7       0.0       0.0       0.0
 1 H  dx2y2          20.2      10.6       0.0       0.0       0.0       3.7
 1 H  dxy             0.0       0.0       0.0       0.0      43.8       0.0
 1 H  f0              0.0       0.0       0.0       1.9       0.0       0.0
 1 H  f+1             0.1       4.6       0.0       0.0       0.0       0.0
 1 H  f-1             0.0       0.0       0.0       0.0       0.3       0.0
 1 H  f+2             0.0       0.0       0.0       3.2       0.0       0.0
 1 H  f-2             0.0       0.0       7.3       0.0       0.0       0.0
 1 H  f+3             0.2       2.7       0.0       0.0       0.0       0.0
 1 H  f-3             0.0       0.0       0.0       0.0       4.5       0.0

                     24        25        26        27        28        29   
                   2.75597   3.83490   4.20258   4.20293   5.77531   5.77544
                   0.00000   0.00000   0.00000   0.00000   0.00000   0.00000
                  --------  --------  --------  --------  --------  --------
 0 H  s               4.3      32.3       0.0       0.0       0.0       0.0
 0 H  pz              0.0       0.0       0.0      23.0       0.0       0.0
 0 H  px              7.9      11.5       0.0       0.0       0.0       0.0
 0 H  py              0.0       0.0      23.0       0.0       0.0       0.0
 0 H  dz2             7.7       0.9       0.0       0.0       0.0       0.0
 0 H  dxz             0.0       0.0       0.0      13.3       0.0       0.0
 0 H  dx2y2          23.1       2.7       0.0       0.0       0.0       0.0
 0 H  dxy             0.0       0.0      13.3       0.0       0.0       0.0
 0 H  f0              0.0       0.0       0.0       5.1      31.3       0.0
 0 H  f+1             2.6       1.0       0.0       0.0       0.0       0.0
 0 H  f-1             0.0       0.0       0.9       0.0       0.0      46.9
 0 H  f+2             0.0       0.0       0.0       8.5      18.7       0.0
 0 H  f+3             4.3       1.7       0.0       0.0       0.0       0.0
 0 H  f-3             0.0       0.0      12.8       0.0       0.0       3.1
 1 H  s               4.3      32.3       0.0       0.0       0.0       0.0
 1 H  pz              0.0       0.0       0.0      23.0       0.0       0.0
 1 H  px              7.9      11.5       0.0       0.0       0.0       0.0
 1 H  py              0.0       0.0      23.0       0.0       0.0       0.0
 1 H  dz2             7.7       0.9       0.0       0.0       0.0       0.0
 1 H  dxz             0.0       0.0       0.0      13.3       0.0       0.0
 1 H  dx2y2          23.1       2.7       0.0       0.0       0.0       0.0
 1 H  dxy             0.0       0.0      13.3       0.0       0.0       0.0
 1 H  f0              0.0       0.0       0.0       5.1      31.3       0.0
 1 H  f+1             2.6       1.0       0.0       0.0       0.0       0.0
 1 H  f-1             0.0       0.0       0.9       0.0       0.0      46.9
 1 H  f+2             0.0       0.0       0.0       8.5      18.7       0.0
 1 H  f+3             4.3       1.7       0.0       0.0       0.0       0.0
 1 H  f-3             0.0       0.0      12.8       0.0       0.0       3.1

                     30        31        32        33        34        35   
                   6.06402   6.80192   6.87503   6.87504   6.90204   6.90206
                   0.00000   0.00000   0.00000   0.00000   0.00000   0.00000
                  --------  --------  --------  --------  --------  --------
 0 H  s               1.6      11.5       0.0       0.0       0.0       0.0
 0 H  px              5.1       7.7       0.0       0.0       0.0       0.0
 0 H  dz2             1.4       7.6      10.5       0.0       3.5       0.0
 0 H  dyz             0.0       0.0       0.0      13.8       0.0       4.7
 0 H  dx2y2           4.3      23.1       3.3       0.0       1.2       0.0
 0 H  f+1            14.1       0.0      22.6       0.0      28.3       0.0
 0 H  f-2             0.0       0.0       0.0      36.2       0.0      45.3
 0 H  f+3            23.5       0.1      13.6       0.0      17.0       0.0
 1 H  s               1.6      11.5       0.0       0.0       0.0       0.0
 1 H  px              5.1       7.7       0.0       0.0       0.0       0.0
 1 H  dz2             1.4       7.6      10.5       0.0       3.5       0.0
 1 H  dyz             0.0       0.0       0.0      13.8       0.0       4.7
 1 H  dx2y2           4.3      23.1       3.3       0.0       1.2       0.0
 1 H  f+1            14.1       0.0      22.6       0.0      28.3       0.0
 1 H  f-2             0.0       0.0       0.0      36.2       0.0      45.3
 1 H  f+3            23.5       0.1      13.6       0.0      17.0       0.0

                     36        37        38        39        40        41   
                   7.02012   7.07205   7.11045   7.11087   7.11858   7.11858
                   0.00000   0.00000   0.00000   0.00000   0.00000   0.00000
                  --------  --------  --------  --------  --------  --------
 0 H  pz             25.0       0.0       0.0       7.1       0.0       0.0
 0 H  py              0.0      15.9       7.1       0.0       0.0       0.0
 0 H  dxz             0.7       0.0       0.0       7.5       0.0       0.0
 0 H  dxy             0.0       3.5       7.5       0.0       0.0       0.0
 0 H  f0              9.0       0.0       0.0      12.4       0.0      32.1
 0 H  f-1             0.0       1.9       1.8       0.0      47.3       0.0
 0 H  f+2            15.2       0.0       0.0      23.0       0.0      17.9
 0 H  f-3             0.0      28.7      33.6       0.0       2.7       0.0
 1 H  pz             25.0       0.0       0.0       7.1       0.0       0.0
 1 H  py              0.0      15.9       7.1       0.0       0.0       0.0
 1 H  dxz             0.7       0.0       0.0       7.5       0.0       0.0
 1 H  dxy             0.0       3.5       7.5       0.0       0.0       0.0
 1 H  f0              9.0       0.0       0.0      12.4       0.0      32.1
 1 H  f-1             0.0       1.9       1.8       0.0      47.3       0.0
 1 H  f+2            15.2       0.0       0.0      23.0       0.0      17.9
 1 H  f-3             0.0      28.7      33.6       0.0       2.7       0.0

                     42        43        44        45        46        47   
                   7.23171   7.28605   7.66673   7.74502   7.89455   7.89456
                   0.00000   0.00000   0.00000   0.00000   0.00000   0.00000
                  --------  --------  --------  --------  --------  --------
 0 H  s               0.0       0.0       4.7       2.7       0.0       0.0
 0 H  pz             10.5       0.0       0.0       0.0       0.0       0.0
 0 H  px              0.0       0.0       7.4      34.4       0.0       0.0
 0 H  py              0.0      19.3       0.0       0.0       0.0       0.0
 0 H  dz2             0.0       0.0       1.5       1.1      34.1       0.0
 0 H  dxz            30.6       0.0       0.0       0.0       0.0       0.0
 0 H  dyz             0.0       0.0       0.0       0.0       0.0      45.4
 0 H  dx2y2           0.0       0.0       4.5       3.4      11.3       0.0
 0 H  dxy             0.0      28.1       0.0       0.0       0.0       0.0
 0 H  f0              3.4       0.0       0.0       0.0       0.0       0.0
 0 H  f+1             0.0       0.0      12.0       3.1       2.9       0.0
 0 H  f-1             0.0       0.2       0.0       0.0       0.0       0.0
 0 H  f+2             5.5       0.0       0.0       0.0       0.0       0.0
 0 H  f-2             0.0       0.0       0.0       0.0       0.0       4.6
 0 H  f+3             0.0       0.0      20.0       5.3       1.7       0.0
 0 H  f-3             0.0       2.5       0.0       0.0       0.0       0.0
 1 H  s               0.0       0.0       4.7       2.7       0.0       0.0
 1 H  pz             10.5       0.0       0.0       0.0       0.0       0.0
 1 H  px              0.0       0.0       7.4      34.4       0.0       0.0
 1 H  py              0.0      19.3       0.0       0.0       0.0       0.0
 1 H  dz2             0.0       0.0       1.5       1.1      34.1       0.0
 1 H  dxz            30.6       0.0       0.0       0.0       0.0       0.0
 1 H  dyz             0.0       0.0       0.0       0.0       0.0      45.4
 1 H  dx2y2           0.0       0.0       4.5       3.4      11.3       0.0
 1 H  dxy             0.0      28.1       0.0       0.0       0.0       0.0
 1 H  f0              3.4       0.0       0.0       0.0       0.0       0.0
 1 H  f+1             0.0       0.0      12.0       3.1       2.9       0.0
 1 H  f-1             0.0       0.2       0.0       0.0       0.0       0.0
 1 H  f+2             5.5       0.0       0.0       0.0       0.0       0.0
 1 H  f-2             0.0       0.0       0.0       0.0       0.0       4.6
 1 H  f+3             0.0       0.0      20.0       5.3       1.7       0.0
 1 H  f-3             0.0       2.5       0.0       0.0       0.0       0.0

                     48        49        50        51        52        53   
                   8.71531   9.06049   9.06088  10.66467  10.66482  11.37119
                   0.00000   0.00000   0.00000   0.00000   0.00000   0.00000
                  --------  --------  --------  --------  --------  --------
 0 H  s               0.6       0.0       0.0       0.0       0.0       0.0
 0 H  pz              0.0       0.0      44.6      15.7       0.0       0.0
 0 H  px             13.8       0.0       0.0       0.0       0.0       0.0
 0 H  py              0.0      44.6       0.0       0.0      15.5       0.0
 0 H  dz2             8.2       0.0       0.0       0.0       0.0      32.6
 0 H  dxz             0.0       0.0       4.6      23.0       0.0       0.0
 0 H  dx2y2          24.7       0.0       0.0       0.0       0.0      10.9
 0 H  dxy             0.0       4.6       0.0       0.0      23.1       0.0
 0 H  f0              0.0       0.0       0.3       4.3       0.0       0.0
 0 H  f+1             1.0       0.0       0.0       0.0       0.0       4.1
 0 H  f-1             0.0       0.1       0.0       0.0       0.7       0.0
 0 H  f+2             0.0       0.0       0.5       7.1       0.0       0.0
 0 H  f+3             1.7       0.0       0.0       0.0       0.0       2.4
 0 H  f-3             0.0       0.8       0.0       0.0      10.7       0.0
 1 H  s               0.6       0.0       0.0       0.0       0.0       0.0
 1 H  pz              0.0       0.0      44.6      15.7       0.0       0.0
 1 H  px             13.8       0.0       0.0       0.0       0.0       0.0
 1 H  py              0.0      44.6       0.0       0.0      15.5       0.0
 1 H  dz2             8.2       0.0       0.0       0.0       0.0      32.6
 1 H  dxz             0.0       0.0       4.6      23.0       0.0       0.0
 1 H  dx2y2          24.7       0.0       0.0       0.0       0.0      10.9
 1 H  dxy             0.0       4.6       0.0       0.0      23.1       0.0
 1 H  f0              0.0       0.0       0.3       4.3       0.0       0.0
 1 H  f+1             1.0       0.0       0.0       0.0       0.0       4.1
 1 H  f-1             0.0       0.1       0.0       0.0       0.7       0.0
 1 H  f+2             0.0       0.0       0.5       7.1       0.0       0.0
 1 H  f+3             1.7       0.0       0.0       0.0       0.0       2.4
 1 H  f-3             0.0       0.8       0.0       0.0      10.7       0.0

                     54        55        56        57        58        59   
                  11.37120  11.99214  15.14081  15.14129  15.96912  18.59074
                   0.00000   0.00000   0.00000   0.00000   0.00000   0.00000
                  --------  --------  --------  --------  --------  --------
 0 H  s               0.0      11.2       0.0       0.0      27.5      25.2
 0 H  pz              0.0       0.0       0.0      23.4       0.0       0.0
 0 H  px              0.0      20.9       0.0       0.0      19.2      13.0
 0 H  py              0.0       0.0      23.4       0.0       0.0       0.0
 0 H  dz2             0.0       2.7       0.0       0.0       0.7       2.8
 0 H  dxz             0.0       0.0       0.0      26.6       0.0       0.0
 0 H  dyz            43.5       0.0       0.0       0.0       0.0       0.0
 0 H  dx2y2           0.0       8.0       0.0       0.0       2.2       8.4
 0 H  dxy             0.0       0.0      26.6       0.0       0.0       0.0
 0 H  f+1             0.0       2.7       0.0       0.0       0.2       0.3
 0 H  f-2             6.5       0.0       0.0       0.0       0.0       0.0
 0 H  f+3             0.0       4.5       0.0       0.0       0.3       0.4
 1 H  s               0.0      11.2       0.0       0.0      27.5      25.2
 1 H  pz              0.0       0.0       0.0      23.4       0.0       0.0
 1 H  px              0.0      20.9       0.0       0.0      19.2      13.0
 1 H  py              0.0       0.0      23.4       0.0       0.0       0.0
 1 H  dz2             0.0       2.7       0.0       0.0       0.7       2.8
 1 H  dxz             0.0       0.0       0.0      26.6       0.0       0.0
 1 H  dyz            43.5       0.0       0.0       0.0       0.0       0.0
 1 H  dx2y2           0.0       8.0       0.0       0.0       2.2       8.4
 1 H  dxy             0.0       0.0      26.6       0.0       0.0       0.0
 1 H  f+1             0.0       2.7       0.0       0.0       0.2       0.3
 1 H  f-2             6.5       0.0       0.0       0.0       0.0       0.0
 1 H  f+3             0.0       4.5       0.0       0.0       0.3       0.4


----------------------------
LOEWDIN REDUCED ACTIVE MOs  
----------------------------

                      0         1         2         3         4         5   
                  -0.67575   1.01522   1.12510   1.26874   0.19577   0.44039
                   1.97857   0.01014   0.00710   0.00420   0.00000   0.00000
                  --------  --------  --------  --------  --------  --------
 0 H  s              47.2      10.1      34.8       0.0      47.6      48.4
 0 H  pz              0.0       0.0       0.0      46.7       0.0       0.0
 0 H  px              2.4      34.9      13.1       0.0       2.1       1.6
 1 H  s              47.2      10.1      34.8       0.0      47.6      48.4
 1 H  pz              0.0       0.0       0.0      46.7       0.0       0.0
 1 H  px              2.4      34.9      13.1       0.0       2.1       1.6

------------------------------------------------------------------------------
                           ORCA POPULATION ANALYSIS
------------------------------------------------------------------------------
Input electron density              ... H2_0_1_CASSCF-2-4_def2-qzvpp.sp.scfp
BaseName (.gbw .S,...)              ... H2_0_1_CASSCF-2-4_def2-qzvpp.sp

                    ********************************
                    * MULLIKEN POPULATION ANALYSIS *
                    ********************************

-----------------------
MULLIKEN ATOMIC CHARGES
-----------------------
   0 H :    0.000000
   1 H :   -0.000000
Sum of atomic charges:   -0.0000000

--------------------------------
MULLIKEN REDUCED ORBITAL CHARGES
--------------------------------
  0 H s       :     0.984479  s :     0.984479
      pz      :     0.001996  p :     0.015153
      px      :     0.013158
      py      :     0.000000
      dz2     :    -0.000029  d :     0.000350
      dxz     :     0.000101
      dyz     :     0.000000
      dx2y2   :     0.000278
      dxy     :     0.000000
      f0      :     0.000001  f :     0.000018
      f+1     :     0.000002
      f-1     :     0.000000
      f+2     :     0.000000
      f-2     :     0.000000
      f+3     :     0.000014
      f-3     :     0.000000
  1 H s       :     0.984479  s :     0.984479
      pz      :     0.001996  p :     0.015153
      px      :     0.013158
      py      :     0.000000
      dz2     :    -0.000029  d :     0.000350
      dxz     :     0.000101
      dyz     :     0.000000
      dx2y2   :     0.000278
      dxy     :     0.000000
      f0      :     0.000001  f :     0.000018
      f+1     :     0.000002
      f-1     :     0.000000
      f+2     :     0.000000
      f-2     :     0.000000
      f+3     :     0.000014
      f-3     :     0.000000

------------------------
MULLIKEN OVERLAP CHARGES
------------------------
B(  0-H ,  1-H ) :   0.9022 


                     *******************************
                     * LOEWDIN POPULATION ANALYSIS *
                     *******************************

----------------------
LOEWDIN ATOMIC CHARGES
----------------------
   0 H :    0.000000
   1 H :   -0.000000

-------------------------------
LOEWDIN REDUCED ORBITAL CHARGES
-------------------------------
  0 H s       :     0.938066  s :     0.938066
      pz      :     0.001960  p :     0.054185
      px      :     0.052225
      py      :     0.000000
      dz2     :     0.001610  d :     0.007064
      dxz     :     0.000132
      dyz     :     0.000000
      dx2y2   :     0.005322
      dxy     :     0.000000
      f0      :     0.000003  f :     0.000685
      f+1     :     0.000248
      f-1     :     0.000000
      f+2     :     0.000003
      f-2     :     0.000000
      f+3     :     0.000431
      f-3     :     0.000000
  1 H s       :     0.938066  s :     0.938066
      pz      :     0.001960  p :     0.054185
      px      :     0.052225
      py      :     0.000000
      dz2     :     0.001610  d :     0.007064
      dxz     :     0.000132
      dyz     :     0.000000
      dx2y2   :     0.005322
      dxy     :     0.000000
      f0      :     0.000003  f :     0.000685
      f+1     :     0.000248
      f-1     :     0.000000
      f+2     :     0.000003
      f-2     :     0.000000
      f+3     :     0.000431
      f-3     :     0.000000

---------------------------------
LOEWDIN BOND ORDERS (THRESH 0.050000)
---------------------------------
B(  0-H ,  1-H ) :   0.9785 


                      *****************************
                      * MAYER POPULATION ANALYSIS *
                      *****************************

  NA   - Mulliken gross atomic population
  ZA   - Total nuclear charge
  QA   - Mulliken gross atomic charge
  VA   - Mayer's total valence
  BVA  - Mayer's bonded valence
  FA   - Mayer's free valence

  ATOM       NA         ZA         QA         VA         BVA        FA
  0 H      1.0000     1.0000     0.0000     1.0188     0.9763     0.0426
  1 H      1.0000     1.0000    -0.0000     1.0188     0.9763     0.0426

  Mayer bond orders larger than 0.100000
B(  0-H ,  1-H ) :   0.9763 


-------------------------------------------------------------
 Forming the transition density       ... done in 0.001831 sec
-------------------------------------------------------------



==========================================
CASSCF UV, CD spectra and dipole moments
==========================================
-------------------
ABSORPTION SPECTRUM
-------------------

Center of mass           = (  0.4736,  0.0000,  0.0000)
Nuclear contribution to the dipole moment =     0.000000,    0.000000,    0.000000 au

Calculating the dipole integrals                  ... done
Transforming integrals                            ... done
Calculating the Linear Momentum integrals         ... done
Transforming integrals                            ... done
Calculating the Angular Momentum integrals        ... done
Transforming integrals                            ... done

Ground state mult:    1
Ground state block:   0
Ground state root:    0


------------------------------------------------------------------------------
                                 DIPOLE MOMENTS
------------------------------------------------------------------------------
  Root  Block           TX        TY        TZ           |T|
                      (Debye)   (Debye)   (Debye)      (Debye)
------------------------------------------------------------------------------
    0    0           -0.00000   0.00000  -0.00000      0.00000

--------------
CASSCF TIMINGS
--------------

Total time                       ...        3.0 sec
Sum of individual times          ...        2.8 sec ( 92.4%)

Calculation of AO operators
   F(Core) operator              ...        0.0 sec (  0.7%)
   G(Act) operator               ...        0.8 sec ( 27.0%)
   J(AO) operators               ...        0.0 sec (  0.0%)
Calculation of MO transformed quantities
   J(MO) operators               ...        1.7 sec ( 58.3%)
   (pq|rs) integrals             ...        0.0 sec (  0.0%)
   AO->MO one electron integrals ...        0.0 sec (  0.0%)
Configuration interaction steps
   CI-setup phase                ...        0.0 sec (  0.0%)
   CI-solution phase             ...        0.2 sec (  5.5%)
   Generation of densities       ...        0.0 sec (  0.1%)
Orbital improvement steps
   Orbital gradient              ...        0.0 sec (  0.3%)
   O(1) converger                ...        0.0 sec (  0.2%)
Properties                       ...        0.0 sec (  0.2%)
   SOC integral calculation      ...        0.0 sec (  0.0%)
   SSC RMEs (incl. integrals)    ...        0.0 sec (  0.0%)
   SOC RMEs                      ...        0.0 sec (  0.0%)

-------------------------   --------------------
FINAL SINGLE POINT ENERGY        -1.094223258309
-------------------------   --------------------

Storing actual gbw-file in H2_0_1_CASSCF-2-4_def2-qzvpp.sp.001.gbw ... done

                            ***************************************
                            *     ORCA property calculations      *
                            ***************************************

                                    ---------------------
                                    Active property flags
                                    ---------------------
   (+) Dipole Moment


------------------------------------------------------------------------------
                       ORCA ELECTRIC PROPERTIES CALCULATION
------------------------------------------------------------------------------

Dipole Moment Calculation                       ... on
Quadrupole Moment Calculation                   ... off
Polarizability Calculation                      ... off
GBWName                                         ... H2_0_1_CASSCF-2-4_def2-qzvpp.sp.gbw
Electron density file                           ... H2_0_1_CASSCF-2-4_def2-qzvpp.sp.scfp
The origin for moment calculation is the CENTER OF MASS  = ( 0.473553,  0.000000  0.000000)

-------------
DIPOLE MOMENT
-------------
                                X             Y             Z
Electronic contribution:     -0.00000       0.00000      -0.00000
Nuclear contribution   :      0.00000       0.00000       0.00000
                        -----------------------------------------
Total Dipole Moment    :     -0.00000       0.00000      -0.00000
                        -----------------------------------------
Magnitude (a.u.)       :      0.00000
Magnitude (Debye)      :      0.00000



--------------------
Rotational spectrum 
--------------------
 
Rotational constants in cm-1:     0.000000   133.157724   133.157724 
Rotational constants in MHz :     0.000000 3991968.149099 3991968.149099 

 Dipole components along the rotational axes: 
x,y,z [a.u.] :    -0.000000     0.000000    -0.000000 
x,y,z [Debye]:    -0.000000     0.000000    -0.000000 

 

         *************************************************************
                                TRAJECTORY STEP   2
                RHH  :   0.60842987
         *************************************************************
---------------------------------
CARTESIAN COORDINATES (ANGSTROEM)
---------------------------------
  H      0.000000    0.000000    0.000000
  H      0.608430    0.000000    0.000000

----------------------------
CARTESIAN COORDINATES (A.U.)
----------------------------
  NO LB      ZA    FRAG     MASS         X           Y           Z
   0 H     1.0000    0     1.008    0.000000    0.000000    0.000000
   1 H     1.0000    0     1.008    1.149766    0.000000    0.000000

--------------------------------
INTERNAL COORDINATES (ANGSTROEM)
--------------------------------
 H      0   0   0     0.000000000000     0.00000000     0.00000000
 H      1   0   0     0.608429869077     0.00000000     0.00000000

---------------------------
INTERNAL COORDINATES (A.U.)
---------------------------
 H      0   0   0     0.000000000000     0.00000000     0.00000000
 H      1   0   0     1.149765824252     0.00000000     0.00000000


Diagonalization of the overlap matrix:
Smallest eigenvalue                        ... 8.441e-05
Time for diagonalization                   ...    0.002 sec
Threshold for overlap eigenvalues          ... 1.000e-08
Number of eigenvalues below threshold      ... 0
Time for construction of square roots      ...    0.002 sec
Total time needed                          ...    0.004 sec



 ... the calculation is a CASSCF calculation -I'm leaving here GOOD LUCK!!!

-------------------------------------------------------------------------------
                              ORCA-CASSCF
-------------------------------------------------------------------------------

Setting up the integral package       ... done
Building the CAS space                ... done (10 configurations for Mult=1)

SYSTEM-SPECIFIC SETTINGS:
Number of active electrons          ...    2
Number of active orbitals           ...    4
Total number of electrons           ...    2
Total number of orbitals            ...   60

Determined orbital ranges:
   Internal       0 -   -1 (   0 orbitals)
   Active         0 -    3 (   4 orbitals)
   External       4 -   59 (  56 orbitals)
Number of rotation parameters      ...    224

CI-STEP:
CI strategy                         ... General CI
Number of multiplicity blocks       ...    1
BLOCK  1 WEIGHT=   1.0000
  Multiplicity                      ...    1
  #(Configurations)                 ...   10
  #(CSFs)                           ...   10
  #(Roots)                          ...    1
    ROOT=0 WEIGHT=    1.000000

  PrintLevel                        ...    1
  N(GuessMat)                       ...       512
  MaxDim(CI)                        ...        10
  MaxIter(CI)                       ...        64
  Energy Tolerance CI               ...  2.50e-09
  Residual Tolerance CI             ...  2.50e-09
  Shift(CI)                         ...  1.00e-04

INTEGRAL-TRANSFORMATION-STEP:
  Algorithm                         ... EXACT

ORBITAL-IMPROVEMENT-STEP:
  Algorithm                         ... SuperCI(PT)
  Default Parametrization           ... CAYLEY
  Act-Act rotations                 ... depends on algorithm used

  Note: SuperCI(PT) will ignore FreezeIE, FreezeAct and FreezeGrad. In general Default settings are encouraged.
        In conjunction with ShiftUp, ShiftDn or GradScaling the performance of SuperCI(PT) is less optimal.  

  MaxRot                            ... 2.00e-01 
  Max. no of vectors (DIIS)         ... 15
  DThresh (cut-off) metric          ... 1.00e-06
  Switch step at gradient           ...  3.00e-02 
  Switch step at iteration          ...        50   
  Switch step to                    ... SuperCI(PT)    

SCF-SETTINGS:
  Incremental                       ... on
  RIJCOSX approximation             ... off
  RI-JK approximation               ... off
  AO integral handling              ... DIRECT
  Integral Neglect Thresh           ...  2.50e-11
  Primitive cutoff TCut             ...  2.50e-12
  Energy convergence tolerance      ...  2.50e-08
  Orbital gradient convergence      ...  2.50e-04
  Max. number of iterations         ...        75  


FINAL ORBITALS:
  Active   Orbitals                 ... natural 
  Internal Orbitals                 ... canonical 
  External Orbitals                 ... canonical 

------------------
CAS-SCF ITERATIONS
------------------


MACRO-ITERATION   1: 
   --- Inactive Energy E0 = 0.86974232 Eh
CI-ITERATION   0: 
    -1.147104381   0.000000000000 (    0.00)
   CI-PROBLEM SOLVED
   DENSITIES MADE

                 <<<<<<<<<<<<<<<<<<INITIAL CI STATE CHECK>>>>>>>>>>>>>>>>>>

BLOCK  1 MULT= 1 NROOTS= 1 
ROOT   0:  E=      -1.1471043811 Eh
      0.98633 [     0]: 2000
      0.00729 [     4]: 0200
      0.00290 [     7]: 0020

                 <<<<<<<<<<<<<<<<<<INITIAL CI STATE CHECK>>>>>>>>>>>>>>>>>>

   E(CAS)=    -1.147104381 Eh DE=     0.000000000
   --- Energy gap subspaces: Ext-Act = -0.817   Act-Int = 0.600
   N(occ)=  1.97410 0.01458 0.00723 0.00409
   ||g|| =      0.200979624 Max(G)=    -0.148897324 Rot=59,0
   --- Orbital Update [SuperCI(PT)]
   --- Canonicalize Internal Space
   --- Canonicalize External Space
   --- SX_PT (Skipped TA=0 IT=0): ||X|| =      0.064654050 Max(X)(18,2) =      0.029087494 
   --- SFit(Active Orbitals)

MACRO-ITERATION   2: 
   --- Inactive Energy E0 = 0.86974232 Eh
CI-ITERATION   0: 
    -1.148095771   0.000000000000 (    0.00)
   CI-PROBLEM SOLVED
   DENSITIES MADE
   E(CAS)=    -1.148095771 Eh DE=    -0.000991390
   --- Energy gap subspaces: Ext-Act = -0.750   Act-Int = 0.600
   N(occ)=  1.97324 0.01439 0.00804 0.00434
   ||g|| =      0.023832093 Max(G)=    -0.013460350 Rot=23,0
   --- Orbital Update [SuperCI(PT)]
   --- Canonicalize Internal Space
   --- Canonicalize External Space
   --- SX_PT (Skipped TA=0 IT=0): ||X|| =      0.026672114 Max(X)(24,2) =     -0.013187091 
   --- SFit(Active Orbitals)

MACRO-ITERATION   3: 
   --- Inactive Energy E0 = 0.86974232 Eh
CI-ITERATION   0: 
    -1.148162909   0.000000000000 (    0.00)
   CI-PROBLEM SOLVED
   DENSITIES MADE
   E(CAS)=    -1.148162909 Eh DE=    -0.000067138
   --- Energy gap subspaces: Ext-Act = -0.708   Act-Int = 0.600
   N(occ)=  1.97250 0.01442 0.00862 0.00446
   ||g|| =      0.006219768 Max(G)=    -0.004318644 Rot=30,0
   --- Orbital Update [SuperCI(PT)]
   --- Canonicalize Internal Space
   --- Canonicalize External Space
   --- SX_PT (Skipped TA=0 IT=0): ||X|| =      0.003998659 Max(X)(5,2) =     -0.002581223 
   --- SFit(Active Orbitals)

MACRO-ITERATION   4: 
   --- Inactive Energy E0 = 0.86974232 Eh
CI-ITERATION   0: 
    -1.148164906   0.000000000000 (    0.00)
   CI-PROBLEM SOLVED
   DENSITIES MADE
   E(CAS)=    -1.148164906 Eh DE=    -0.000001997
   --- Energy gap subspaces: Ext-Act = -0.703   Act-Int = 0.600
   N(occ)=  1.97238 0.01445 0.00870 0.00447
   ||g|| =      0.000767196 Max(G)=     0.000467165 Rot=10,0
   --- Orbital Update [SuperCI(PT)]
   --- Canonicalize Internal Space
   --- Canonicalize External Space
   --- SX_PT (Skipped TA=0 IT=0): ||X|| =      0.000693654 Max(X)(21,3) =     -0.000334647 
   --- SFit(Active Orbitals)

MACRO-ITERATION   5: 
   --- Inactive Energy E0 = 0.86974232 Eh
CI-ITERATION   0: 
    -1.148164968   0.000000000000 (    0.00)
   CI-PROBLEM SOLVED
   DENSITIES MADE
   E(CAS)=    -1.148164968 Eh DE=    -0.000000062
   --- Energy gap subspaces: Ext-Act = -0.702   Act-Int = 0.600
   N(occ)=  1.97237 0.01445 0.00871 0.00447
   ||g|| =      0.000061937 Max(G)=     0.000043145 Rot=10,0
                     ---- THE CAS-SCF GRADIENT HAS CONVERGED ----
                            --- FINALIZING ORBITALS ---
                    ---- DOING ONE FINAL ITERATION FOR PRINTING ----
   --- Forming Natural Orbitals
   --- Canonicalize Internal Space
   --- Canonicalize External Space

MACRO-ITERATION   6: 
   --- Inactive Energy E0 = 0.86974232 Eh
   --- All densities will be recomputed
CI-ITERATION   0: 
    -1.148164968   0.000000000000 (    0.00)
   CI-PROBLEM SOLVED
   DENSITIES MADE
   E(CAS)=    -1.148164968 Eh DE=    -0.000000000
   --- Energy gap subspaces: Ext-Act = -0.920   Act-Int = 0.600
   N(occ)=  1.97421 0.01445 0.00687 0.00447
   ||g|| =      0.000061937 Max(G)=    -0.000042890 Rot=10,0
--------------
CASSCF RESULTS
--------------

Final CASSCF energy       : -1.148164968 Eh     -31.2432 eV


---------------------------------------------
CAS-SCF STATES FOR BLOCK  1 MULT= 1 NROOTS= 1
---------------------------------------------

ROOT   0:  E=      -1.1481649683 Eh
      0.98710 [     0]: 2000
      0.00722 [     4]: 0200
      0.00344 [     7]: 0020


--------------
DENSITY MATRIX
--------------

                   0          1          2          3    
      0       1.974209  -0.000000   0.000000  -0.000000
      1      -0.000000   0.014446  -0.000000   0.000000
      2       0.000000  -0.000000   0.006871  -0.000000
      3      -0.000000   0.000000  -0.000000   0.004474
Trace of the electron density:  2.000000

-----------------
ENERGY COMPONENTS
-----------------

One electron energy          :     -2.671919420 Eh         -72.7066 eV
Two electron energy          :      0.654012128 Eh          17.7966 eV
Nuclear repulsion energy     :      0.869742324 Eh          23.6669 eV
                               ----------------
                                   -1.148164968

Kinetic energy               :      1.320854024 Eh          35.9423 eV
Potential energy             :     -2.469018993 Eh         -67.1854 eV
Virial ratio                 :     -1.869259545 
                               ----------------
                                   -1.148164968

Core energy                  :      0.869742324 Eh       23.6669 eV


----------------------------
LOEWDIN REDUCED ACTIVE MOs  
----------------------------

                      0         1         2         3         4         5   
                  -0.63219   0.81614   1.03226   1.12646   0.20608   0.46930
                   1.97421   0.01445   0.00687   0.00447   0.00000   0.00000
                  --------  --------  --------  --------  --------  --------
 0 H  s              47.0      13.7      33.0       0.0      47.5      47.6
 0 H  pz              0.0       0.0       0.0      46.3       0.0       0.0
 0 H  px              2.5      30.9      14.2       0.0       2.0       2.4
 1 H  s              47.0      13.7      33.0       0.0      47.5      47.6
 1 H  pz              0.0       0.0       0.0      46.3       0.0       0.0
 1 H  px              2.5      30.9      14.2       0.0       2.0       2.4


-------------------------------------------------------------
 Forming the transition density       ... done in 0.001631 sec
-------------------------------------------------------------



==========================================
CASSCF UV, CD spectra and dipole moments
==========================================
-------------------
ABSORPTION SPECTRUM
-------------------

Center of mass           = (  0.5749,  0.0000,  0.0000)
Nuclear contribution to the dipole moment =     0.000000,    0.000000,    0.000000 au

Calculating the dipole integrals                  ... done
Transforming integrals                            ... done
Calculating the Linear Momentum integrals         ... done
Transforming integrals                            ... done
Calculating the Angular Momentum integrals        ... done
Transforming integrals                            ... done

Ground state mult:    1
Ground state block:   0
Ground state root:    0


------------------------------------------------------------------------------
                                 DIPOLE MOMENTS
------------------------------------------------------------------------------
  Root  Block           TX        TY        TZ           |T|
                      (Debye)   (Debye)   (Debye)      (Debye)
------------------------------------------------------------------------------
    0    0           -0.00000   0.00000   0.00000      0.00000

--------------
CASSCF TIMINGS
--------------

Total time                       ...        2.0 sec
Sum of individual times          ...        1.9 sec ( 92.7%)

Calculation of AO operators
   F(Core) operator              ...        0.0 sec (  0.7%)
   G(Act) operator               ...        0.5 sec ( 26.7%)
   J(AO) operators               ...        0.0 sec (  0.0%)
Calculation of MO transformed quantities
   J(MO) operators               ...        1.2 sec ( 58.6%)
   (pq|rs) integrals             ...        0.0 sec (  0.0%)
   AO->MO one electron integrals ...        0.0 sec (  0.0%)
Configuration interaction steps
   CI-setup phase                ...        0.0 sec (  0.0%)
   CI-solution phase             ...        0.1 sec (  5.8%)
   Generation of densities       ...        0.0 sec (  0.1%)
Orbital improvement steps
   Orbital gradient              ...        0.0 sec (  0.3%)
   O(1) converger                ...        0.0 sec (  0.2%)
Properties                       ...        0.0 sec (  0.3%)
   SOC integral calculation      ...        0.0 sec (  0.0%)
   SSC RMEs (incl. integrals)    ...        0.0 sec (  0.0%)
   SOC RMEs                      ...        0.0 sec (  0.0%)

-------------------------   --------------------
FINAL SINGLE POINT ENERGY        -1.148164968313
-------------------------   --------------------

Storing actual gbw-file in H2_0_1_CASSCF-2-4_def2-qzvpp.sp.002.gbw ... done

                            ***************************************
                            *     ORCA property calculations      *
                            ***************************************

                                    ---------------------
                                    Active property flags
                                    ---------------------
   (+) Dipole Moment


------------------------------------------------------------------------------
                       ORCA ELECTRIC PROPERTIES CALCULATION
------------------------------------------------------------------------------

Dipole Moment Calculation                       ... on
Quadrupole Moment Calculation                   ... off
Polarizability Calculation                      ... off
GBWName                                         ... H2_0_1_CASSCF-2-4_def2-qzvpp.sp.gbw
Electron density file                           ... H2_0_1_CASSCF-2-4_def2-qzvpp.sp.scfp
The origin for moment calculation is the CENTER OF MASS  = ( 0.574883,  0.000000  0.000000)

-------------
DIPOLE MOMENT
-------------
                                X             Y             Z
Electronic contribution:     -0.00000       0.00000       0.00000
Nuclear contribution   :      0.00000       0.00000       0.00000
                        -----------------------------------------
Total Dipole Moment    :     -0.00000       0.00000       0.00000
                        -----------------------------------------
Magnitude (a.u.)       :      0.00000
Magnitude (Debye)      :      0.00000



--------------------
Rotational spectrum 
--------------------
 
Rotational constants in cm-1:     0.000000    90.353569    90.353569 
Rotational constants in MHz :     0.000000 2708731.853415 2708731.853415 

 Dipole components along the rotational axes: 
x,y,z [a.u.] :    -0.000000     0.000000     0.000000 
x,y,z [Debye]:    -0.000000     0.000000     0.000000 

 

         *************************************************************
                                TRAJECTORY STEP   3
                RHH  :   0.73861998
         *************************************************************
---------------------------------
CARTESIAN COORDINATES (ANGSTROEM)
---------------------------------
  H      0.000000    0.000000    0.000000
  H      0.738620    0.000000    0.000000

----------------------------
CARTESIAN COORDINATES (A.U.)
----------------------------
  NO LB      ZA    FRAG     MASS         X           Y           Z
   0 H     1.0000    0     1.008    0.000000    0.000000    0.000000
   1 H     1.0000    0     1.008    1.395789    0.000000    0.000000

--------------------------------
INTERNAL COORDINATES (ANGSTROEM)
--------------------------------
 H      0   0   0     0.000000000000     0.00000000     0.00000000
 H      1   0   0     0.738619982208     0.00000000     0.00000000

---------------------------
INTERNAL COORDINATES (A.U.)
---------------------------
 H      0   0   0     0.000000000000     0.00000000     0.00000000
 H      1   0   0     1.395789483415     0.00000000     0.00000000


Diagonalization of the overlap matrix:
Smallest eigenvalue                        ... 1.599e-04
Time for diagonalization                   ...    0.002 sec
Threshold for overlap eigenvalues          ... 1.000e-08
Number of eigenvalues below threshold      ... 0
Time for construction of square roots      ...    0.002 sec
Total time needed                          ...    0.003 sec



 ... the calculation is a CASSCF calculation -I'm leaving here GOOD LUCK!!!

-------------------------------------------------------------------------------
                              ORCA-CASSCF
-------------------------------------------------------------------------------

Setting up the integral package       ... done
Building the CAS space                ... done (10 configurations for Mult=1)

SYSTEM-SPECIFIC SETTINGS:
Number of active electrons          ...    2
Number of active orbitals           ...    4
Total number of electrons           ...    2
Total number of orbitals            ...   60

Determined orbital ranges:
   Internal       0 -   -1 (   0 orbitals)
   Active         0 -    3 (   4 orbitals)
   External       4 -   59 (  56 orbitals)
Number of rotation parameters      ...    224

CI-STEP:
CI strategy                         ... General CI
Number of multiplicity blocks       ...    1
BLOCK  1 WEIGHT=   1.0000
  Multiplicity                      ...    1
  #(Configurations)                 ...   10
  #(CSFs)                           ...   10
  #(Roots)                          ...    1
    ROOT=0 WEIGHT=    1.000000

  PrintLevel                        ...    1
  N(GuessMat)                       ...       512
  MaxDim(CI)                        ...        10
  MaxIter(CI)                       ...        64
  Energy Tolerance CI               ...  2.50e-09
  Residual Tolerance CI             ...  2.50e-09
  Shift(CI)                         ...  1.00e-04

INTEGRAL-TRANSFORMATION-STEP:
  Algorithm                         ... EXACT

ORBITAL-IMPROVEMENT-STEP:
  Algorithm                         ... SuperCI(PT)
  Default Parametrization           ... CAYLEY
  Act-Act rotations                 ... depends on algorithm used

  Note: SuperCI(PT) will ignore FreezeIE, FreezeAct and FreezeGrad. In general Default settings are encouraged.
        In conjunction with ShiftUp, ShiftDn or GradScaling the performance of SuperCI(PT) is less optimal.  

  MaxRot                            ... 2.00e-01 
  Max. no of vectors (DIIS)         ... 15
  DThresh (cut-off) metric          ... 1.00e-06
  Switch step at gradient           ...  3.00e-02 
  Switch step at iteration          ...        50   
  Switch step to                    ... SuperCI(PT)    

SCF-SETTINGS:
  Incremental                       ... on
  RIJCOSX approximation             ... off
  RI-JK approximation               ... off
  AO integral handling              ... DIRECT
  Integral Neglect Thresh           ...  2.50e-11
  Primitive cutoff TCut             ...  2.50e-12
  Energy convergence tolerance      ...  2.50e-08
  Orbital gradient convergence      ...  2.50e-04
  Max. number of iterations         ...        75  


FINAL ORBITALS:
  Active   Orbitals                 ... natural 
  Internal Orbitals                 ... canonical 
  External Orbitals                 ... canonical 

------------------
CAS-SCF ITERATIONS
------------------


MACRO-ITERATION   1: 
   --- Inactive Energy E0 = 0.71644042 Eh
CI-ITERATION   0: 
    -1.163551982   0.000000000000 (    0.00)
   CI-PROBLEM SOLVED
   DENSITIES MADE

                 <<<<<<<<<<<<<<<<<<INITIAL CI STATE CHECK>>>>>>>>>>>>>>>>>>

BLOCK  1 MULT= 1 NROOTS= 1 
ROOT   0:  E=      -1.1635519818 Eh
      0.98237 [     0]: 2000
      0.01115 [     4]: 0200
      0.00274 [     7]: 0020

                 <<<<<<<<<<<<<<<<<<INITIAL CI STATE CHECK>>>>>>>>>>>>>>>>>>

   E(CAS)=    -1.163551982 Eh DE=     0.000000000
   --- Energy gap subspaces: Ext-Act = -0.774   Act-Int = 0.600
   N(occ)=  1.96634 0.02231 0.00708 0.00427
   ||g|| =      0.204860893 Max(G)=     0.157776807 Rot=59,0
   --- Orbital Update [SuperCI(PT)]
   --- Canonicalize Internal Space
   --- Canonicalize External Space
   --- SX_PT (Skipped TA=0 IT=0): ||X|| =      0.064406249 Max(X)(24,2) =     -0.031326789 
   --- SFit(Active Orbitals)

MACRO-ITERATION   2: 
   --- Inactive Energy E0 = 0.71644042 Eh
CI-ITERATION   0: 
    -1.164707701   0.000000000000 (    0.00)
   CI-PROBLEM SOLVED
   DENSITIES MADE
   E(CAS)=    -1.164707701 Eh DE=    -0.001155719
   --- Energy gap subspaces: Ext-Act = -0.709   Act-Int = 0.600
   N(occ)=  1.96557 0.02194 0.00794 0.00455
   ||g|| =      0.026395836 Max(G)=    -0.014540954 Rot=24,0
   --- Orbital Update [SuperCI(PT)]
   --- Canonicalize Internal Space
   --- Canonicalize External Space
   --- SX_PT (Skipped TA=0 IT=0): ||X|| =      0.027086683 Max(X)(5,2) =     -0.013735090 
   --- SFit(Active Orbitals)

MACRO-ITERATION   3: 
   --- Inactive Energy E0 = 0.71644042 Eh
CI-ITERATION   0: 
    -1.164784489   0.000000000000 (    0.00)
   CI-PROBLEM SOLVED
   DENSITIES MADE
   E(CAS)=    -1.164784489 Eh DE=    -0.000076788
   --- Energy gap subspaces: Ext-Act = -0.670   Act-Int = 0.600
   N(occ)=  1.96484 0.02192 0.00855 0.00469
   ||g|| =      0.005862122 Max(G)=     0.003618470 Rot=28,0
   --- Orbital Update [SuperCI(PT)]
   --- Canonicalize Internal Space
   --- Canonicalize External Space
   --- SX_PT (Skipped TA=0 IT=0): ||X|| =      0.004270947 Max(X)(5,2) =     -0.002771708 
   --- SFit(Active Orbitals)

MACRO-ITERATION   4: 
   --- Inactive Energy E0 = 0.71644042 Eh
CI-ITERATION   0: 
    -1.164786505   0.000000000000 (    0.00)
   CI-PROBLEM SOLVED
   DENSITIES MADE
   E(CAS)=    -1.164786505 Eh DE=    -0.000002016
   --- Energy gap subspaces: Ext-Act = -0.664   Act-Int = 0.600
   N(occ)=  1.96472 0.02194 0.00863 0.00470
   ||g|| =      0.000903301 Max(G)=    -0.000545272 Rot=10,0
   --- Orbital Update [SuperCI(PT)]
   --- Canonicalize Internal Space
   --- Canonicalize External Space
   --- SX_PT (Skipped TA=0 IT=0): ||X|| =      0.000782757 Max(X)(22,3) =     -0.000367089 
   --- SFit(Active Orbitals)

MACRO-ITERATION   5: 
[...]
Orbital improvement steps
   Orbital gradient              ...        0.0 sec (  0.7%)
Properties                       ...        0.0 sec (  2.0%)
   SOC integral calculation      ...        0.0 sec (  0.0%)
   SSC RMEs (incl. integrals)    ...        0.0 sec (  0.0%)
   SOC RMEs                      ...        0.0 sec (  0.0%)

-------------------------   --------------------
FINAL SINGLE POINT ENERGY        -0.999966591494
-------------------------   --------------------

Storing actual gbw-file in H2_0_1_CASSCF-2-4_def2-qzvpp.sp.019.gbw ... done

                            ***************************************
                            *     ORCA property calculations      *
                            ***************************************

                                    ---------------------
                                    Active property flags
                                    ---------------------
   (+) Dipole Moment


------------------------------------------------------------------------------
                       ORCA ELECTRIC PROPERTIES CALCULATION
------------------------------------------------------------------------------

Dipole Moment Calculation                       ... on
Quadrupole Moment Calculation                   ... off
Polarizability Calculation                      ... off
GBWName                                         ... H2_0_1_CASSCF-2-4_def2-qzvpp.sp.gbw
Electron density file                           ... H2_0_1_CASSCF-2-4_def2-qzvpp.sp.scfp
The origin for moment calculation is the CENTER OF MASS  = (15.529531,  0.000000  0.000000)

-------------
DIPOLE MOMENT
-------------
                                X             Y             Z
Electronic contribution:     -0.00000      -0.00000      -0.00000
Nuclear contribution   :      0.00000       0.00000       0.00000
                        -----------------------------------------
Total Dipole Moment    :     -0.00000      -0.00000      -0.00000
                        -----------------------------------------
Magnitude (a.u.)       :      0.00000
Magnitude (Debye)      :      0.00000



--------------------
Rotational spectrum 
--------------------
 
Rotational constants in cm-1:     0.000000     0.123819     0.123819 
Rotational constants in MHz :     0.000000  3712.001304  3712.001304 

 Dipole components along the rotational axes: 
x,y,z [a.u.] :    -0.000000    -0.000000    -0.000000 
x,y,z [Debye]:    -0.000000    -0.000000    -0.000000 

 

         *************************************************************
                                TRAJECTORY STEP  20
                RHH  :  19.95262315
         *************************************************************
---------------------------------
CARTESIAN COORDINATES (ANGSTROEM)
---------------------------------
  H      0.000000    0.000000    0.000000
  H     19.952623    0.000000    0.000000

----------------------------
CARTESIAN COORDINATES (A.U.)
----------------------------
  NO LB      ZA    FRAG     MASS         X           Y           Z
   0 H     1.0000    0     1.008    0.000000    0.000000    0.000000
   1 H     1.0000    0     1.008   37.704993    0.000000    0.000000

--------------------------------
INTERNAL COORDINATES (ANGSTROEM)
--------------------------------
 H      0   0   0     0.000000000000     0.00000000     0.00000000
 H      1   0   0    19.952623149689     0.00000000     0.00000000

---------------------------
INTERNAL COORDINATES (A.U.)
---------------------------
 H      0   0   0     0.000000000000     0.00000000     0.00000000
 H      1   0   0    37.704993406249     0.00000000     0.00000000


Diagonalization of the overlap matrix:
Smallest eigenvalue                        ... 3.391e-02
Time for diagonalization                   ...    0.002 sec
Threshold for overlap eigenvalues          ... 1.000e-08
Number of eigenvalues below threshold      ... 0
Time for construction of square roots      ...    0.002 sec
Total time needed                          ...    0.004 sec



 ... the calculation is a CASSCF calculation -I'm leaving here GOOD LUCK!!!

-------------------------------------------------------------------------------
                              ORCA-CASSCF
-------------------------------------------------------------------------------

Setting up the integral package       ... done
Building the CAS space                ... done (10 configurations for Mult=1)

SYSTEM-SPECIFIC SETTINGS:
Number of active electrons          ...    2
Number of active orbitals           ...    4
Total number of electrons           ...    2
Total number of orbitals            ...   60

Determined orbital ranges:
   Internal       0 -   -1 (   0 orbitals)
   Active         0 -    3 (   4 orbitals)
   External       4 -   59 (  56 orbitals)
Number of rotation parameters      ...    224

CI-STEP:
CI strategy                         ... General CI
Number of multiplicity blocks       ...    1
BLOCK  1 WEIGHT=   1.0000
  Multiplicity                      ...    1
  #(Configurations)                 ...   10
  #(CSFs)                           ...   10
  #(Roots)                          ...    1
    ROOT=0 WEIGHT=    1.000000

  PrintLevel                        ...    1
  N(GuessMat)                       ...       512
  MaxDim(CI)                        ...        10
  MaxIter(CI)                       ...        64
  Energy Tolerance CI               ...  2.50e-09
  Residual Tolerance CI             ...  2.50e-09
  Shift(CI)                         ...  1.00e-04

INTEGRAL-TRANSFORMATION-STEP:
  Algorithm                         ... EXACT

ORBITAL-IMPROVEMENT-STEP:
  Algorithm                         ... SuperCI(PT)
  Default Parametrization           ... CAYLEY
  Act-Act rotations                 ... depends on algorithm used

  Note: SuperCI(PT) will ignore FreezeIE, FreezeAct and FreezeGrad. In general Default settings are encouraged.
        In conjunction with ShiftUp, ShiftDn or GradScaling the performance of SuperCI(PT) is less optimal.  

  MaxRot                            ... 2.00e-01 
  Max. no of vectors (DIIS)         ... 15
  DThresh (cut-off) metric          ... 1.00e-06
  Switch step at gradient           ...  3.00e-02 
  Switch step at iteration          ...        50   
  Switch step to                    ... SuperCI(PT)    

SCF-SETTINGS:
  Incremental                       ... on
  RIJCOSX approximation             ... off
  RI-JK approximation               ... off
  AO integral handling              ... DIRECT
  Integral Neglect Thresh           ...  2.50e-11
  Primitive cutoff TCut             ...  2.50e-12
  Energy convergence tolerance      ...  2.50e-08
  Orbital gradient convergence      ...  2.50e-04
  Max. number of iterations         ...        75  


FINAL ORBITALS:
  Active   Orbitals                 ... natural 
  Internal Orbitals                 ... canonical 
  External Orbitals                 ... canonical 

------------------
CAS-SCF ITERATIONS
------------------


MACRO-ITERATION   1: 
   --- Inactive Energy E0 = 0.02652169 Eh
CI-ITERATION   0: 
    -0.999966590   0.000000000000 (    0.00)
   CI-PROBLEM SOLVED
   DENSITIES MADE

                 <<<<<<<<<<<<<<<<<<INITIAL CI STATE CHECK>>>>>>>>>>>>>>>>>>

BLOCK  1 MULT= 1 NROOTS= 1 
ROOT   0:  E=      -0.9999665904 Eh
      0.50003 [     0]: 2000
      0.49997 [     4]: 0200

                 <<<<<<<<<<<<<<<<<<INITIAL CI STATE CHECK>>>>>>>>>>>>>>>>>>

   E(CAS)=    -0.999966590 Eh DE=     0.000000000
   --- Energy gap subspaces: Ext-Act = -0.366   Act-Int = 0.600
   N(occ)=  1.00006 0.99994 0.00000 0.00000
   ||g|| =      0.000134306 Max(G)=    -0.000089013 Rot=5,0
                     ---- THE CAS-SCF GRADIENT HAS CONVERGED ----
                            --- FINALIZING ORBITALS ---
                    ---- DOING ONE FINAL ITERATION FOR PRINTING ----
   --- Forming Natural Orbitals
   --- Canonicalize Internal Space
   --- Canonicalize External Space

MACRO-ITERATION   2: 
   --- Inactive Energy E0 = 0.02652169 Eh
   --- All densities will be recomputed
CI-ITERATION   0: 
    -0.999966590   0.000000000000 (    0.00)
   CI-PROBLEM SOLVED
   DENSITIES MADE
   E(CAS)=    -0.999966590 Eh DE=    -0.000000000
   --- Energy gap subspaces: Ext-Act = -0.366   Act-Int = 0.600
   N(occ)=  1.00006 0.99994 0.00000 0.00000
   ||g|| =      0.000134306 Max(G)=     0.000089013 Rot=5,0
--------------
CASSCF RESULTS
--------------

Final CASSCF energy       : -0.999966590 Eh     -27.2105 eV


---------------------------------------------
CAS-SCF STATES FOR BLOCK  1 MULT= 1 NROOTS= 1
---------------------------------------------

ROOT   0:  E=      -0.9999665904 Eh
      0.50003 [     0]: 2000
      0.49997 [     4]: 0200


--------------
DENSITY MATRIX
--------------

                   0          1          2          3    
      0       1.000056  -0.000000   0.000000  -0.000000
      1      -0.000000   0.999944  -0.000000  -0.000000
      2       0.000000  -0.000000   0.000000   0.000000
      3      -0.000000  -0.000000   0.000000   0.000000
Trace of the electron density:  2.000000

-----------------
ENERGY COMPONENTS
-----------------

One electron energy          :     -1.053009936 Eh         -28.6539 eV
Two electron energy          :      0.026521660 Eh           0.7217 eV
Nuclear repulsion energy     :      0.026521686 Eh           0.7217 eV
                               ----------------
                                   -0.999966590

Kinetic energy               :      0.999962016 Eh          27.2103 eV
Potential energy             :     -1.999928607 Eh         -54.4208 eV
Virial ratio                 :     -2.000004574 
                               ----------------
                                   -0.999966590

Core energy                  :      0.026521686 Eh        0.7217 eV


----------------------------
LOEWDIN REDUCED ACTIVE MOs  
----------------------------

                      0         1         2         3         4         5   
                  -0.18749  -0.18747   0.58530   0.60843   0.24212   0.24461
                   1.00006   0.99994   0.00000   0.00000   0.00000   0.00000
                  --------  --------  --------  --------  --------  --------
 0 H  s              50.0      50.0       0.4       0.0      50.0      49.6
 0 H  pz              0.0       0.0       0.0      49.0       0.0       0.0
 0 H  px              0.0       0.0      49.2       0.0       0.0       0.4
 1 H  s              50.0      50.0       0.4       0.0      50.0      49.6
 1 H  pz              0.0       0.0       0.0      49.0       0.0       0.0
 1 H  px              0.0       0.0      49.2       0.0       0.0       0.4


-------------------------------------------------------------
 Forming the transition density       ... done in 0.002697 sec
-------------------------------------------------------------



==========================================
CASSCF UV, CD spectra and dipole moments
==========================================
-------------------
ABSORPTION SPECTRUM
-------------------

Center of mass           = ( 18.8525,  0.0000,  0.0000)
Nuclear contribution to the dipole moment =     0.000000,    0.000000,    0.000000 au

Calculating the dipole integrals                  ... done
Transforming integrals                            ... done
Calculating the Linear Momentum integrals         ... done
Transforming integrals                            ... done
Calculating the Angular Momentum integrals        ... done
Transforming integrals                            ... done

Ground state mult:    1
Ground state block:   0
Ground state root:    0


------------------------------------------------------------------------------
                                 DIPOLE MOMENTS
------------------------------------------------------------------------------
  Root  Block           TX        TY        TZ           |T|
                      (Debye)   (Debye)   (Debye)      (Debye)
------------------------------------------------------------------------------
    0    0           -0.00000  -0.00000  -0.00000      0.00000

--------------
CASSCF TIMINGS
--------------

Total time                       ...        0.4 sec
Sum of individual times          ...        0.2 sec ( 66.9%)

Calculation of AO operators
   F(Core) operator              ...        0.0 sec (  1.3%)
   G(Act) operator               ...        0.0 sec (  7.4%)
   J(AO) operators               ...        0.0 sec (  0.0%)
Calculation of MO transformed quantities
   J(MO) operators               ...        0.2 sec ( 44.2%)
   (pq|rs) integrals             ...        0.0 sec (  0.0%)
   AO->MO one electron integrals ...        0.0 sec (  0.1%)
Configuration interaction steps
   CI-setup phase                ...        0.0 sec (  0.1%)
   CI-solution phase             ...        0.0 sec ( 10.7%)
   Generation of densities       ...        0.0 sec (  0.2%)
Orbital improvement steps
   Orbital gradient              ...        0.0 sec (  0.7%)
Properties                       ...        0.0 sec (  2.2%)
   SOC integral calculation      ...        0.0 sec (  0.0%)
   SSC RMEs (incl. integrals)    ...        0.0 sec (  0.0%)
   SOC RMEs                      ...        0.0 sec (  0.0%)

-------------------------   --------------------
FINAL SINGLE POINT ENERGY        -0.999966590443
-------------------------   --------------------

Storing actual gbw-file in H2_0_1_CASSCF-2-4_def2-qzvpp.sp.020.gbw ... done

                            ***************************************
                            *     ORCA property calculations      *
                            ***************************************

                                    ---------------------
                                    Active property flags
                                    ---------------------
   (+) Dipole Moment


------------------------------------------------------------------------------
                       ORCA ELECTRIC PROPERTIES CALCULATION
------------------------------------------------------------------------------

Dipole Moment Calculation                       ... on
Quadrupole Moment Calculation                   ... off
Polarizability Calculation                      ... off
GBWName                                         ... H2_0_1_CASSCF-2-4_def2-qzvpp.sp.gbw
Electron density file                           ... H2_0_1_CASSCF-2-4_def2-qzvpp.sp.scfp
The origin for moment calculation is the CENTER OF MASS  = (18.852497,  0.000000  0.000000)

-------------
DIPOLE MOMENT
-------------
                                X             Y             Z
Electronic contribution:      0.00000      -0.00000      -0.00000
Nuclear contribution   :     -0.00000       0.00000       0.00000
                        -----------------------------------------
Total Dipole Moment    :      0.00000      -0.00000      -0.00000
                        -----------------------------------------
Magnitude (a.u.)       :      0.00000
Magnitude (Debye)      :      0.00000



--------------------
Rotational spectrum 
--------------------
 
Rotational constants in cm-1:     0.000000     0.084017     0.084017 
Rotational constants in MHz :     0.000000  2518.761623  2518.761623 

 Dipole components along the rotational axes: 
x,y,z [a.u.] :     0.000000    -0.000000    -0.000000 
x,y,z [Debye]:     0.000000    -0.000000    -0.000000 

 
                              **** TRAJECTORY DONE ***

                         SUMMARY OF THE CALCULATED SURFACE

------------------
TRAJECTORY RESULTS
------------------

Column   1: RHH

The Calculated Surface using the 'Actual Energy'
   0.50118723  -1.09422326
   0.60842987  -1.14816497
   0.73861998  -1.16478659
   0.89666781  -1.15408374
   1.08853427  -1.12547061
   1.32145577  -1.08812601
   1.60421716  -1.05120863
   1.94748304  -1.02300250
   2.36419999  -1.00746198
   2.87008485  -1.00166116
   3.48421754  -1.00022679
   4.22976062  -0.99999506
   5.13483291  -0.99996973
   6.23357002  -0.99996719
   7.56741181  -0.99996675
   9.18666532  -0.99996664
  11.15240214  -0.99996660
  13.53876180  -0.99996659
  16.43574799  -0.99996659
  19.95262315  -0.99996659

                        *******************************
                        *   FIT OF THE ACT-ENERGY PES *
                        *******************************
-------------------------------
POTENTIAL ENERGY SURFACE =   0
-------------------------------

Minimum found after 20 iterations
Equilibrium distance and its energy from the interpolated PES:
  Re      =   0.73038 Angstroem  (  1.38022 Bohr)
  E(Re)   =    -1.164822 Eh 
  dE/dR   = 3.670e-10 (-1.160e-01 CHEB)
  d2E/dR2 =    0.310697 (   0.789967 CHEB) (  -0.012168 NUM)
  d3E/dR3 =   -4.119109 (  -2.976802 CHEB)

Spectroscopic constants:
  we =    4052.2 cm**-1 (based on SPLINE)
  we =    6461.4 cm**-1 (based on CHEB)
  we =      -nan cm**-1 (based on NUM)

Performing Morse fit ...
Morse-Fit Results:
 Te(adiabatic)   =    -343.2 cm**-1         = -0.043 eV
 d2E/dR**2 (Morse)=      0.398223133 
 d3E/dR**3 (Morse)=     -1.303968450 
 d4E/dR**4 (Morse)=      3.320956700 
 E0               =     -1.166385371 Eh  RMS=9.83e-07
 Re               =   0.74666 Angstroem      =  1.41098 Bohr RMS=8.10e-06)
 De(Morse)        =   4.54787 eV             =  36681.1 cm**-1 RMS=1.23e-06
 D0(Morse)        =   4.26348 eV
 beta             =   1.09149 au          RMS=1.83e-05
 we               =   4587.6 cm**-1
 wexe             =    143.4 cm**-1
 Displacement   =    0.0163 Angstroem      =  0.03076 Bohr

The Calculated Surface using the SCF energy
   0.50118723  -1.09422326
   0.60842987  -1.14816497
   0.73861998  -1.16478659
   0.89666781  -1.15408374
   1.08853427  -1.12547061
   1.32145577  -1.08812601
   1.60421716  -1.05120863
   1.94748304  -1.02300250
   2.36419999  -1.00746198
   2.87008485  -1.00166116
   3.48421754  -1.00022679
   4.22976062  -0.99999506
   5.13483291  -0.99996973
   6.23357002  -0.99996719
   7.56741181  -0.99996675
   9.18666532  -0.99996664
  11.15240214  -0.99996660
  13.53876180  -0.99996659
  16.43574799  -0.99996659
  19.95262315  -0.99996659

                        *******************************
                        *       FIT OF THE SCF PES    *
                        *******************************
-------------------------------
POTENTIAL ENERGY SURFACE =   0
-------------------------------

Minimum found after 20 iterations
Equilibrium distance and its energy from the interpolated PES:
  Re      =   0.73038 Angstroem  (  1.38022 Bohr)
  E(Re)   =    -1.164822 Eh 
  dE/dR   = 3.670e-10 (-1.160e-01 CHEB)
  d2E/dR2 =    0.310697 (   0.789967 CHEB) (  -0.012168 NUM)
  d3E/dR3 =   -4.119109 (  -2.976802 CHEB)

Spectroscopic constants:
  we =    4052.2 cm**-1 (based on SPLINE)
  we =    6461.4 cm**-1 (based on CHEB)
  we =      -nan cm**-1 (based on NUM)

Performing Morse fit ...
Morse-Fit Results:
 Te(adiabatic)   =    -343.2 cm**-1         = -0.043 eV
 d2E/dR**2 (Morse)=      0.398223133 
 d3E/dR**3 (Morse)=     -1.303968450 
 d4E/dR**4 (Morse)=      3.320956700 
 E0               =     -1.166385371 Eh  RMS=9.83e-07
 Re               =   0.74666 Angstroem      =  1.41098 Bohr RMS=8.10e-06)
 De(Morse)        =   4.54787 eV             =  36681.1 cm**-1 RMS=1.23e-06
 D0(Morse)        =   4.26348 eV
 beta             =   1.09149 au          RMS=1.83e-05
 we               =   4587.6 cm**-1
 wexe             =    143.4 cm**-1
 Displacement   =    0.0163 Angstroem      =  0.03076 Bohr


Timings for individual modules:

Sum of individual times         ...       96.284 sec (=   1.605 min)
GTO integral calculation        ...        5.273 sec (=   0.088 min)   5.5 %
SCF iterations                  ...        0.954 sec (=   0.016 min)   1.0 %
CASSCF iterations               ...       90.056 sec (=   1.501 min)  93.5 %
                             ****ORCA TERMINATED NORMALLY****
TOTAL RUN TIME: 0 days 0 hours 1 minutes 38 seconds 513 msec
