
                                 *****************
                                 * O   R   C   A *
                                 *****************

           --- An Ab Initio, DFT and Semiempirical electronic structure package ---

                  #######################################################
                  #                        -***-                        #
                  #          Department of theory and spectroscopy      #
                  #               Directorship: Frank Neese             #
                  #        Max Planck Institute fuer Kohlenforschung    #
                  #                Kaiser Wilhelm Platz 1               #
                  #                 D-45470 Muelheim/Ruhr               #
                  #                      Germany                        #
                  #                                                     #
                  #                  All rights reserved                #
                  #                        -***-                        #
                  #######################################################


                         Program Version 4.2.0 -  RELEASE  -


 With contributions from (in alphabetic order):
   Daniel Aravena         : Magnetic Suceptibility
   Michael Atanasov       : Ab Initio Ligand Field Theory (pilot matlab implementation)
   Alexander A. Auer      : GIAO ZORA, VPT2
   Ute Becker             : Parallelization
   Giovanni Bistoni       : ED, misc. LED, open-shell LED, HFLED
   Martin Brehm           : Molecular dynamics
   Dmytro Bykov           : SCF Hessian
   Vijay G. Chilkuri      : MRCI spin determinant printing, contributions to CSF-ICE
   Dipayan Datta          : RHF DLPNO-CCSD density
   Achintya Kumar Dutta   : EOM-CC, STEOM-CC
   Dmitry Ganyushin       : Spin-Orbit,Spin-Spin,Magnetic field MRCI
   Miquel Garcia          : C-PCM Hessian, Gaussian charge scheme
   Yang Guo               : DLPNO-NEVPT2, CIM, IAO-localization
   Andreas Hansen         : Spin unrestricted coupled pair/coupled cluster methods
   Benjamin Helmich-Paris : CASSCF linear response (MC-RPA)
   Lee Huntington         : MR-EOM, pCC
   Robert Izsak           : Overlap fitted RIJCOSX, COSX-SCS-MP3, EOM
   Christian Kollmar      : KDIIS, OOCD, Brueckner-CCSD(T), CCSD density
   Simone Kossmann        : Meta GGA functionals, TD-DFT gradient, OOMP2, MP2 Hessian
   Martin Krupicka        : AUTO-CI
   Lucas Lang             : DCDCAS
   Dagmar Lenk            : GEPOL surface, SMD
   Dimitrios Liakos       : Extrapolation schemes; Compound Job, initial MDCI parallelization
   Dimitrios Manganas     : Further ROCIS development; embedding schemes
   Dimitrios Pantazis     : SARC Basis sets
   Taras Petrenko         : DFT Hessian,TD-DFT gradient, ASA, ECA, R-Raman, ABS, FL, XAS/XES, NRVS
   Peter Pinski           : DLPNO-MP2, DLPNO-MP2 Gradient
   Christoph Reimann      : Effective Core Potentials
   Marius Retegan         : Local ZFS, SOC
   Christoph Riplinger    : Optimizer, TS searches, QM/MM, DLPNO-CCSD(T), (RO)-DLPNO pert. Triples
   Tobias Risthaus        : Range-separated hybrids, TD-DFT gradient, RPA, STAB
   Michael Roemelt        : Original ROCIS implementation
   Masaaki Saitow         : Open-shell DLPNO-CCSD energy and density
   Barbara Sandhoefer     : DKH picture change effects
   Avijit Sen             : IP-ROCIS
   Kantharuban Sivalingam : CASSCF convergence, NEVPT2, FIC-MRCI
   Bernardo de Souza      : ESD, SOC TD-DFT
   Georgi Stoychev        : AutoAux, RI-MP2 NMR
   Willem Van den Heuvel  : Paramagnetic NMR
   Boris Wezisla          : Elementary symmetry handling
   Frank Wennmohs         : Technical directorship


 We gratefully acknowledge several colleagues who have allowed us to
 interface, adapt or use parts of their codes:
   Stefan Grimme, W. Hujo, H. Kruse,             : VdW corrections, initial TS optimization,
                  C. Bannwarth                     DFT functionals, gCP, sTDA/sTD-DF
   Ed Valeev, F. Pavosevic, A. Kumar             : LibInt (2-el integral package), F12 methods
   Garnet Chan, S. Sharma, J. Yang, R. Olivares  : DMRG
   Ulf Ekstrom                                   : XCFun DFT Library
   Mihaly Kallay                                 : mrcc  (arbitrary order and MRCC methods)
   Andreas Klamt, Michael Diedenhofen            : otool_cosmo (COSMO solvation model)
   Jiri Pittner, Ondrej Demel                    : Mk-CCSD
   Frank Weinhold                                : gennbo (NPA and NBO analysis)
   Christopher J. Cramer and Donald G. Truhlar   : smd solvation model
   Lars Goerigk                                  : TD-DFT with DH, B97 family of functionals
   V. Asgeirsson, H. Jonsson                     : NEB implementation
   FAccTs GmbH                                   : IRC, NEB, NEB-TS, Multilevel, MM, QM/MM, CI optimization
   S Lehtola, MJT Oliveira, MAL Marques          : LibXC Library


 Your calculation uses the libint2 library for the computation of 2-el integrals
 For citations please refer to: http://libint.valeyev.net

 Your ORCA version has been built with support for libXC version: 4.2.3
 For citations please refer to: https://tddft.org/programs/libxc/

 This ORCA versions uses:
   CBLAS   interface :  Fast vector & matrix operations
   LAPACKE interface :  Fast linear algebra routines
   SCALAPACK package :  Parallel linear algebra routines




***************************************
The coordinates will be read from file: benzene_0_1_bp86_6-31gpol.eopt.xyz
***************************************


----- Orbital basis set information -----
Your calculation utilizes the basis: 6-31G*
   H-He, Li-Ne : W. J. Hehre, R. Ditchfield and J.A. Pople, J. Chem. Phys. 56, 2257 (1972).
                 Note: He and Ne are unpublished basis sets taken from the Gaussian program.
                 Note: Li and B from J. D. Dill and J. A. Pople, J. Chem. Phys. 62, 2921 (1975).
   Na - Ar     : M. M. Francl, W. J. Pietro, W. J. Hehre, J. S. Binkley, M. S. Gordon, 
                 D. J. DeFrees and J. A. Pople, J. Chem. Phys. 77, 3654 (1982).
   K - Zn      : V. A. Rassolov, J. A. Pople, M. A. Ratner, and T. L. Windus, J. Chem. Phys. 109, 1223 (1998).

----- AuxJ basis set information -----
Your calculation utilizes the AutoAux generation procedure.
  G. L. Stoychev, A. A. Auer, F. Neese, J. Chem. Theory Comput. 13, 554 (2017)

----- AuxC basis set information -----
Your calculation utilizes the AutoAux generation procedure.
  G. L. Stoychev, A. A. Auer, F. Neese, J. Chem. Theory Comput. 13, 554 (2017)

----- AuxJK basis set information -----
Your calculation utilizes the AutoAux generation procedure.
  G. L. Stoychev, A. A. Auer, F. Neese, J. Chem. Theory Comput. 13, 554 (2017)

================================================================================
                                        WARNINGS
                       Please study these warnings very carefully!
================================================================================


INFO   : the flag for use of LIBINT has been found!

================================================================================
                                       INPUT FILE
================================================================================
NAME = benzene_0_1_bp86_6-31gpol.efreq.inp
|  1> !uks bp86 6-31g* tightscf anfreq
|  2> !autoaux
|  3> !normalprint
|  4> !moread noiter
|  5> 
|  6> %moinp "benzene_0_1_bp86_6-31gpol.eopt.gbw"
|  7> 
|  8> %scf
|  9>   maxiter 500
| 10> end
| 11> 
| 12> *xyzfile 0 1 benzene_0_1_bp86_6-31gpol.eopt.xyz
| 13> 
| 14>                          ****END OF INPUT****
================================================================================

                       ****************************
                       * Single Point Calculation *
                       ****************************

---------------------------------
CARTESIAN COORDINATES (ANGSTROEM)
---------------------------------
  C      1.423723   -0.228462    0.005652
  C      0.521402   -1.345298   -0.009075
  C     -0.897564   -1.122790   -0.014168
  C     -1.414165    0.217473   -0.004650
  C     -0.511846    1.334305    0.010089
  C      0.907124    1.111798    0.015157
  H      2.504241   -0.398629    0.009723
  H      0.914777   -2.365583   -0.016528
  H     -1.584211   -1.973613   -0.025418
  H     -2.494686    0.387615   -0.008718
  H     -0.905207    2.354594    0.017591
  H      1.593762    1.962629    0.026355

----------------------------
CARTESIAN COORDINATES (A.U.)
----------------------------
  NO LB      ZA    FRAG     MASS         X           Y           Z
   0 C     6.0000    0    12.011    2.690447   -0.431730    0.010681
   1 C     6.0000    0    12.011    0.985308   -2.542246   -0.017150
   2 C     6.0000    0    12.011   -1.696150   -2.121765   -0.026773
   3 C     6.0000    0    12.011   -2.672385    0.410964   -0.008787
   4 C     6.0000    0    12.011   -0.967248    2.521471    0.019065
   5 C     6.0000    0    12.011    1.714216    2.100993    0.028642
   6 H     1.0000    0     1.008    4.732329   -0.753299    0.018374
   7 H     1.0000    0     1.008    1.728678   -4.470303   -0.031233
   8 H     1.0000    0     1.008   -2.993724   -3.729587   -0.048032
   9 H     1.0000    0     1.008   -4.714274    0.732487   -0.016474
  10 H     1.0000    0     1.008   -1.710594    4.449538    0.033242
  11 H     1.0000    0     1.008    3.011773    3.708831    0.049803

--------------------------------
INTERNAL COORDINATES (ANGSTROEM)
--------------------------------
 C      0   0   0     0.000000000000     0.00000000     0.00000000
 C      1   0   0     1.435870327281     0.00000000     0.00000000
 C      2   1   0     1.436315110382   120.02408126     0.00000000
 C      3   2   1     1.436409326943   119.98855288     0.00000000
 C      4   3   2     1.435866129678   119.98728256     0.00000000
 C      5   4   3     1.436318091568   120.02423321     0.00000000
 H      1   2   3     1.093842622748   119.98638945   179.98790693
 H      2   1   3     1.093516813550   119.98215063   179.99324351
 H      3   2   1     1.093393638830   119.99333080   179.99794073
 H      4   3   2     1.093842244822   120.02496612   179.98812575
 H      5   4   3     1.093517102016   119.98281931   180.01556272
 H      6   5   4     1.093393706874   119.99275303   179.99838620

---------------------------
INTERNAL COORDINATES (A.U.)
---------------------------
 C      0   0   0     0.000000000000     0.00000000     0.00000000
 C      1   0   0     2.713401682385     0.00000000     0.00000000
 C      2   1   0     2.714242200634   120.02408126     0.00000000
 C      3   2   1     2.714420244132   119.98855288     0.00000000
 C      4   3   2     2.713393750065   119.98728256     0.00000000
 C      5   4   3     2.714247834261   120.02423321     0.00000000
 H      1   2   3     2.067062990603   119.98638945   179.98790693
 H      2   1   3     2.066447300447   119.98215063   179.99324351
 H      3   2   1     2.066214533960   119.99333080   179.99794073
 H      4   3   2     2.067062276428   120.02496612   179.98812575
 H      5   4   3     2.066447845570   119.98281931   180.01556272
 H      6   5   4     2.066214662545   119.99275303   179.99838620

---------------------
BASIS SET INFORMATION
---------------------
There are 2 groups of distinct atoms

 Group   1 Type C   : 10s4p1d contracted to 3s2p1d pattern {631/31/1}
 Group   2 Type H   : 4s contracted to 2s pattern {31}

Atom   0C    basis set group =>   1
Atom   1C    basis set group =>   1
Atom   2C    basis set group =>   1
Atom   3C    basis set group =>   1
Atom   4C    basis set group =>   1
Atom   5C    basis set group =>   1
Atom   6H    basis set group =>   2
Atom   7H    basis set group =>   2
Atom   8H    basis set group =>   2
Atom   9H    basis set group =>   2
Atom  10H    basis set group =>   2
Atom  11H    basis set group =>   2
---------------------------------
AUXILIARY/J BASIS SET INFORMATION
---------------------------------
There are 2 groups of distinct atoms

 Group   1 Type C   : 13s11p10d2f contracted to 13s11p10d2f pattern {1111111111111/11111111111/1111111111/11}
 Group   2 Type H   : 9s2p contracted to 9s2p pattern {111111111/11}

Atom   0C    basis set group =>   1
Atom   1C    basis set group =>   1
Atom   2C    basis set group =>   1
Atom   3C    basis set group =>   1
Atom   4C    basis set group =>   1
Atom   5C    basis set group =>   1
Atom   6H    basis set group =>   2
Atom   7H    basis set group =>   2
Atom   8H    basis set group =>   2
Atom   9H    basis set group =>   2
Atom  10H    basis set group =>   2
Atom  11H    basis set group =>   2
---------------------------------
AUXILIARY/C BASIS SET INFORMATION
---------------------------------
There are 2 groups of distinct atoms

 Group   1 Type C   : 13s11p10d2f contracted to 13s11p10d2f pattern {1111111111111/11111111111/1111111111/11}
 Group   2 Type H   : 9s2p contracted to 9s2p pattern {111111111/11}

Atom   0C    basis set group =>   1
Atom   1C    basis set group =>   1
Atom   2C    basis set group =>   1
Atom   3C    basis set group =>   1
Atom   4C    basis set group =>   1
Atom   5C    basis set group =>   1
Atom   6H    basis set group =>   2
Atom   7H    basis set group =>   2
Atom   8H    basis set group =>   2
Atom   9H    basis set group =>   2
Atom  10H    basis set group =>   2
Atom  11H    basis set group =>   2
----------------------------------
AUXILIARY/JK BASIS SET INFORMATION
----------------------------------
There are 2 groups of distinct atoms

 Group   1 Type C   : 13s11p10d2f contracted to 13s11p10d2f pattern {1111111111111/11111111111/1111111111/11}
 Group   2 Type H   : 9s2p contracted to 9s2p pattern {111111111/11}

Atom   0C    basis set group =>   1
Atom   1C    basis set group =>   1
Atom   2C    basis set group =>   1
Atom   3C    basis set group =>   1
Atom   4C    basis set group =>   1
Atom   5C    basis set group =>   1
Atom   6H    basis set group =>   2
Atom   7H    basis set group =>   2
Atom   8H    basis set group =>   2
Atom   9H    basis set group =>   2
Atom  10H    basis set group =>   2
Atom  11H    basis set group =>   2
------------------------------------------------------------------------------
                           ORCA GTO INTEGRAL CALCULATION
                           -- RI-GTO INTEGRALS CHOSEN --
------------------------------------------------------------------------------

                         BASIS SET STATISTICS AND STARTUP INFO

Gaussian basis set:
 # of primitive gaussian shells          ...  114
 # of primitive gaussian functions       ...  186
 # of contracted shells                  ...   48
 # of contracted basis functions         ...   96
 Highest angular momentum                ...    2
 Maximum contraction depth               ...    6
Auxiliary gaussian basis set:
 # of primitive gaussian shells          ...  282
 # of primitive gaussian functions       ...  750
 # of contracted shells                  ...  282
 # of contracted aux-basis functions     ...  750
 Highest angular momentum                ...    3
 Maximum contraction depth               ...    1
Ratio of auxiliary to basis functions    ...  7.81
Integral package used                  ... LIBINT
 One Electron integrals                  ... done
 Ordering auxiliary basis shells         ... done
 Integral threshhold             Thresh  ...  2.500e-11
 Primitive cut-off               TCut    ...  2.500e-12
 Pre-screening matrix                    ... done
 Shell pair data                         ... 
 Ordering of the shell pairs             ... done (   0.000 sec) 1158 of 1176 pairs
 Determination of significant pairs      ... done (   0.000 sec)
 Creation of shell pair data             ... done (   0.000 sec)
 Storage of shell pair data              ... done (   0.003 sec)
 Shell pair data done in (   0.004 sec)
 Computing two index integrals           ... done
 Cholesky decomposition of the V-matrix  ... done


Timings:
 Total evaluation time                   ...   0.180 sec (  0.003 min)
 One electron matrix time                ...   0.016 sec (  0.000 min) =  9.0%
 Schwartz matrix evaluation time         ...   0.103 sec (  0.002 min) = 57.0%
 Two index repulsion integral time       ...   0.020 sec (  0.000 min) = 11.2%
 Cholesky decomposition of V             ...   0.017 sec (  0.000 min) =  9.7%
 Three index repulsion integral time     ...   0.000 sec (  0.000 min) =  0.0%

-------------------------------------------------------------------------------
                                 ORCA SCF
-------------------------------------------------------------------------------

------------
SCF SETTINGS
------------
Hamiltonian:
 Density Functional     Method          .... DFT(GTOs)
 Exchange Functional    Exchange        .... B88
   X-Alpha parameter    XAlpha          ....  0.666667
   Becke's b parameter  XBeta           ....  0.004200
 Correlation Functional Correlation     .... P86
 LDA part of GGA corr.  LDAOpt          .... PW91-LDA
 Gradients option       PostSCFGGA      .... off
   Density functional embedding theory  .... OFF
 RI-approximation to the Coulomb term is turned on
   Number of auxiliary basis functions  .... 750


General Settings:
 Integral files         IntName         .... benzene_0_1_bp86_6-31gpol.efreq
 Hartree-Fock type      HFTyp           .... UHF
 Total Charge           Charge          ....    0
 Multiplicity           Mult            ....    1
 Number of Electrons    NEL             ....   42
 Basis Dimension        Dim             ....   96
 Nuclear Repulsion      ENuc            ....    198.2429308724 Eh

Convergence Acceleration:
 DIIS                   CNVDIIS         .... on
   Start iteration      DIISMaxIt       ....    12
   Startup error        DIISStart       ....  0.200000
   # of expansion vecs  DIISMaxEq       ....     5
   Bias factor          DIISBfac        ....   1.050
   Max. coefficient     DIISMaxC        ....  10.000
 Newton-Raphson         CNVNR           .... off
 SOSCF                  CNVSOSCF        .... off
 Level Shifting         CNVShift        .... on
   Level shift para.    LevelShift      ....    0.2500
   Turn off err/grad.   ShiftErr        ....    0.0010
 Zerner damping         CNVZerner       .... off
 Static damping         CNVDamp         .... on
   Fraction old density DampFac         ....    0.7000
   Max. Damping (<1)    DampMax         ....    0.9800
   Min. Damping (>=0)   DampMin         ....    0.0000
   Turn off err/grad.   DampErr         ....    0.1000
 Fernandez-Rico         CNVRico         .... off

SCF Procedure:
 Maximum # iterations   MaxIter         ....   500
 SCF integral mode      SCFMode         .... Direct
   Integral package                     .... LIBINT
 Reset frequency        DirectResetFreq ....    20
 Integral Threshold     Thresh          ....  2.500e-11 Eh
 Primitive CutOff       TCut            ....  2.500e-12 Eh

Convergence Tolerance:
 Convergence Check Mode ConvCheckMode   .... Total+1el-Energy
 Convergence forced     ConvForced      .... 0
 Energy Change          TolE            ....  1.000e-08 Eh
 1-El. energy change                    ....  1.000e-05 Eh
 DIIS Error             TolErr          ....  5.000e-07


Diagonalization of the overlap matrix:
Smallest eigenvalue                        ... 7.015e-04
Time for diagonalization                   ...    0.002 sec
Threshold for overlap eigenvalues          ... 1.000e-08
Number of eigenvalues below threshold      ... 0
Time for construction of square roots      ...    0.005 sec
Total time needed                          ...    0.007 sec

---------------------
INITIAL GUESS: MOREAD
---------------------
Guess MOs are being read from file: benzene_0_1_bp86_6-31gpol.eopt.gbw
Input Geometry matches current geometry (good)
Input basis set matches current basis set (good)
MOs were renormalized
MOs were reorthogonalized (Cholesky)
                      ------------------
                      INITIAL GUESS DONE (   0.0 sec)
                      ------------------
-------------------
DFT GRID GENERATION
-------------------

General Integration Accuracy     IntAcc      ...  4.340
Radial Grid Type                 RadialGrid  ... Gauss-Chebyshev
Angular Grid (max. acc.)         AngularGrid ... Lebedev-110
Angular grid pruning method      GridPruning ... 3 (G Style)
Weight generation scheme         WeightScheme... Becke
Basis function cutoff            BFCut       ...    1.0000e-11
Integration weight cutoff        WCut        ...    1.0000e-14
Grids for H and He will be reduced by one unit

# of grid points (after initial pruning)     ...  14700 (   0.0 sec)
# of grid points (after weights+screening)   ...  13818 (   0.0 sec)
nearest neighbour list constructed           ...    0.0 sec
Grid point re-assignment to atoms done       ...    0.0 sec
Grid point division into batches done        ...    0.0 sec
Reduced shell lists constructed in    0.1 sec

Total number of grid points                  ...    13818
Total number of batches                      ...      220
Average number of points per batch           ...       62
Average number of grid points per atom       ...     1152
Average number of shells per batch           ...    37.93 (79.03%)
Average number of basis functions per batch  ...    78.42 (81.69%)
Average number of large shells per batch     ...    31.50 (83.04%)
Average number of large basis fcns per batch ...    65.30 (83.27%)
Maximum spatial batch extension              ...  18.23, 20.04, 25.63 au
Average spatial batch extension              ...   3.70,  3.95,  5.48 au

Time for grid setup =    0.126 sec

--------------
SCF ITERATIONS
--------------
               ***  Starting incremental Fock matrix formation  ***

                         ----------------------------
                         !        ITERATION     0   !
                         ----------------------------
   Total Energy        :    -232.229804941176 Eh
   Energy Change       :    -232.229804941176 Eh
   MAX-DP              :       0.000000075951
   RMS-DP              :       0.000000005062
   Actual Damping      :       0.7000
   Actual Level Shift  :       0.2500 Eh
   Int. Num. El.       :    42.00095361 (UP=   21.00047681 DN=   21.00047681)
   Exchange            :   -33.16478281
   Correlation         :    -1.48993116

                 **** Energy Check signals convergence ****

               *****************************************************
               *                     SUCCESS                       *
               *           SCF CONVERGED AFTER   1 CYCLES          *
               *****************************************************

Setting up the final grid:

General Integration Accuracy     IntAcc      ...  4.670
Radial Grid Type                 RadialGrid  ... Gauss-Chebyshev
Angular Grid (max. acc.)         AngularGrid ... Lebedev-302
Angular grid pruning method      GridPruning ... 3 (G Style)
Weight generation scheme         WeightScheme... Becke
Basis function cutoff            BFCut       ...    1.0000e-11
Integration weight cutoff        WCut        ...    1.0000e-14
Grids for H and He will be reduced by one unit

# of grid points (after initial pruning)     ...  57636 (   0.0 sec)
# of grid points (after weights+screening)   ...  53529 (   0.1 sec)
nearest neighbour list constructed           ...    0.0 sec
Grid point re-assignment to atoms done       ...    0.0 sec
Grid point division into batches done        ...    0.2 sec
Reduced shell lists constructed in    0.5 sec

Total number of grid points                  ...    53529
Total number of batches                      ...      842
Average number of points per batch           ...       63
Average number of grid points per atom       ...     4461
Average number of shells per batch           ...    34.69 (72.28%)
Average number of basis functions per batch  ...    71.64 (74.62%)
Average number of large shells per batch     ...    28.15 (81.15%)
Average number of large basis fcns per batch ...    58.08 (81.08%)
Maximum spatial batch extension              ...  18.50, 18.07, 23.05 au
Average spatial batch extension              ...   2.60,  2.66,  3.00 au

Final grid set up in    0.7 sec
Final integration                            ... done (   0.7 sec)
Change in XC energy                          ...    -0.000847287
Integrated number of electrons               ...    41.999988785
Previous integrated no of electrons          ...    42.000953612

----------------
TOTAL SCF ENERGY
----------------

Total Energy       :         -232.23065223 Eh           -6319.31731 eV

Components:
Nuclear Repulsion  :          198.24293087 Eh            5394.46440 eV
Electronic Energy  :         -430.47358310 Eh          -11713.78171 eV
One Electron Energy:         -704.06945345 Eh          -19158.70384 eV
Two Electron Energy:          273.59587035 Eh            7444.92212 eV

Virial components:
Potential Energy   :         -462.25728923 Eh          -12578.66033 eV
Kinetic Energy     :          230.02663700 Eh            6259.34301 eV
Virial Ratio       :            2.00958157


DFT components:
N(Alpha)           :       20.999994392740 electrons
N(Beta)            :       20.999994392740 electrons
N(Total)           :       41.999988785480 electrons
E(X)               :      -33.165409661381 Eh       
E(C)               :       -1.490151816359 Eh       
E(XC)              :      -34.655561477740 Eh       
DFET-embed. en.    :        0.000000000000 Eh       

---------------
SCF CONVERGENCE
---------------

  Last Energy change         ...    5.6775e-10  Tolerance :   1.0000e-08
  Last MAX-Density change    ...    3.5805e-08  Tolerance :   1.0000e-07
  Last RMS-Density change    ...    2.5008e-09  Tolerance :   5.0000e-09
  Last DIIS Error            ...    9.7292e-08  Tolerance :   5.0000e-07

             **** THE GBW FILE WAS UPDATED (benzene_0_1_bp86_6-31gpol.efreq.gbw) ****
             **** DENSITY FILE WAS UPDATED (benzene_0_1_bp86_6-31gpol.efreq.scfp) ****
             **** ENERGY FILE WAS UPDATED (benzene_0_1_bp86_6-31gpol.efreq.en.tmp) ****
----------------------
UHF SPIN CONTAMINATION
----------------------

Warning: in a DFT calculation there is little theoretical justification to 
         calculate <S**2> as in Hartree-Fock theory. We will do it anyways
         but you should keep in mind that the values have only limited relevance

Expectation value of <S**2>     :     0.000000
Ideal value S*(S+1) for S=0.0   :     0.000000
Deviation                       :     0.000000

             **** THE GBW FILE WAS UPDATED (benzene_0_1_bp86_6-31gpol.efreq.gbw) ****
             **** DENSITY FILE WAS UPDATED (benzene_0_1_bp86_6-31gpol.efreq.scfp) ****
----------------
ORBITAL ENERGIES
----------------
                 SPIN UP ORBITALS
  NO   OCC          E(Eh)            E(eV) 
   0   1.0000      -9.918707      -269.9017 
   1   1.0000      -9.918699      -269.9015 
   2   1.0000      -9.918564      -269.8979 
   3   1.0000      -9.918482      -269.8956 
   4   1.0000      -9.918401      -269.8934 
   5   1.0000      -9.918378      -269.8928 
   6   1.0000      -0.754227       -20.5236 
   7   1.0000      -0.662581       -18.0297 
   8   1.0000      -0.662484       -18.0271 
   9   1.0000      -0.535735       -14.5781 
  10   1.0000      -0.535729       -14.5779 
  11   1.0000      -0.459218       -12.4960 
  12   1.0000      -0.416757       -11.3405 
  13   1.0000      -0.381476       -10.3805 
  14   1.0000      -0.368194       -10.0191 
  15   1.0000      -0.368049       -10.0151 
  16   1.0000      -0.310569        -8.4510 
  17   1.0000      -0.299156        -8.1405 
  18   1.0000      -0.299100        -8.1389 
  19   1.0000      -0.217154        -5.9091 
  20   1.0000      -0.217028        -5.9056 
  21   0.0000      -0.036603        -0.9960 
  22   0.0000      -0.036313        -0.9881 
  23   0.0000       0.064709         1.7608 
  24   0.0000       0.098135         2.6704 
  25   0.0000       0.116624         3.1735 
  26   0.0000       0.118407         3.2220 
  27   0.0000       0.143794         3.9128 
  28   0.0000       0.144294         3.9264 
  29   0.0000       0.154161         4.1949 
  30   0.0000       0.248746         6.7687 
  31   0.0000       0.250109         6.8058 
  32   0.0000       0.257263         7.0005 
  33   0.0000       0.257851         7.0165 
  34   0.0000       0.446536        12.1509 
  35   0.0000       0.455177        12.3860 
  36   0.0000       0.476219        12.9586 
  37   0.0000       0.485477        13.2105 
  38   0.0000       0.497129        13.5276 
  39   0.0000       0.536418        14.5967 
  40   0.0000       0.538571        14.6553 
  41   0.0000       0.557728        15.1765 
  42   0.0000       0.559903        15.2357 
  43   0.0000       0.560833        15.2610 
  44   0.0000       0.577235        15.7074 
  45   0.0000       0.578811        15.7503 
  46   0.0000       0.614557        16.7229 
  47   0.0000       0.616971        16.7886 
  48   0.0000       0.688841        18.7443 
  49   0.0000       0.773619        21.0513 
  50   0.0000       0.788180        21.4475 
  51   0.0000       0.788527        21.4569 
  52   0.0000       0.824149        22.4262 
  53   0.0000       0.825314        22.4579 
  54   0.0000       0.879118        23.9220 
  55   0.0000       0.879305        23.9271 
  56   0.0000       0.880236        23.9524 
  57   0.0000       0.889919        24.2159 
  58   0.0000       1.026760        27.9395 
  59   0.0000       1.026962        27.9451 
  60   0.0000       1.064373        28.9631 
  61   0.0000       1.064770        28.9739 
  62   0.0000       1.120737        30.4968 
  63   0.0000       1.198622        32.6162 
  64   0.0000       1.344789        36.5936 
  65   0.0000       1.358605        36.9695 
  66   0.0000       1.359610        36.9969 
  67   0.0000       1.405931        38.2573 
  68   0.0000       1.406356        38.2689 
  69   0.0000       1.441960        39.2377 
  70   0.0000       1.442256        39.2458 
  71   0.0000       1.675955        45.6051 
  72   0.0000       1.682801        45.7913 
  73   0.0000       1.775661        48.3182 
  74   0.0000       1.799246        48.9600 
  75   0.0000       1.876797        51.0703 
  76   0.0000       1.877555        51.0909 
  77   0.0000       1.928243        52.4702 
  78   0.0000       1.928655        52.4814 
  79   0.0000       2.020742        54.9872 
  80   0.0000       2.021080        54.9964 
  81   0.0000       2.043756        55.6134 
  82   0.0000       2.044206        55.6257 
  83   0.0000       2.188267        59.5458 
  84   0.0000       2.188836        59.5613 
  85   0.0000       2.189568        59.5812 
  86   0.0000       2.440837        66.4186 
  87   0.0000       2.441381        66.4334 
  88   0.0000       2.494738        67.8853 
  89   0.0000       2.545296        69.2610 
  90   0.0000       2.545563        69.2683 
  91   0.0000       2.595420        70.6250 
  92   0.0000       2.595947        70.6393 
  93   0.0000       2.660462        72.3949 
  94   0.0000       2.884098        78.4803 
  95   0.0000       3.207395        87.2776 

                 SPIN DOWN ORBITALS
  NO   OCC          E(Eh)            E(eV) 
   0   1.0000      -9.918707      -269.9017 
   1   1.0000      -9.918699      -269.9015 
   2   1.0000      -9.918564      -269.8979 
   3   1.0000      -9.918482      -269.8956 
   4   1.0000      -9.918401      -269.8934 
   5   1.0000      -9.918378      -269.8928 
   6   1.0000      -0.754227       -20.5236 
   7   1.0000      -0.662581       -18.0297 
   8   1.0000      -0.662484       -18.0271 
   9   1.0000      -0.535735       -14.5781 
  10   1.0000      -0.535729       -14.5779 
  11   1.0000      -0.459218       -12.4960 
  12   1.0000      -0.416757       -11.3405 
  13   1.0000      -0.381476       -10.3805 
  14   1.0000      -0.368194       -10.0191 
  15   1.0000      -0.368049       -10.0151 
  16   1.0000      -0.310569        -8.4510 
  17   1.0000      -0.299156        -8.1405 
  18   1.0000      -0.299100        -8.1389 
  19   1.0000      -0.217154        -5.9091 
  20   1.0000      -0.217028        -5.9056 
  21   0.0000      -0.036603        -0.9960 
  22   0.0000      -0.036313        -0.9881 
  23   0.0000       0.064709         1.7608 
  24   0.0000       0.098135         2.6704 
  25   0.0000       0.116624         3.1735 
  26   0.0000       0.118407         3.2220 
  27   0.0000       0.143794         3.9128 
  28   0.0000       0.144294         3.9264 
  29   0.0000       0.154161         4.1949 
  30   0.0000       0.248746         6.7687 
  31   0.0000       0.250109         6.8058 
  32   0.0000       0.257263         7.0005 
  33   0.0000       0.257851         7.0165 
  34   0.0000       0.446536        12.1509 
  35   0.0000       0.455177        12.3860 
  36   0.0000       0.476219        12.9586 
  37   0.0000       0.485477        13.2105 
  38   0.0000       0.497129        13.5276 
  39   0.0000       0.536418        14.5967 
  40   0.0000       0.538571        14.6553 
  41   0.0000       0.557728        15.1765 
  42   0.0000       0.559903        15.2357 
  43   0.0000       0.560833        15.2610 
  44   0.0000       0.577235        15.7074 
  45   0.0000       0.578811        15.7503 
  46   0.0000       0.614557        16.7229 
  47   0.0000       0.616971        16.7886 
  48   0.0000       0.688841        18.7443 
  49   0.0000       0.773619        21.0513 
  50   0.0000       0.788180        21.4475 
  51   0.0000       0.788527        21.4569 
  52   0.0000       0.824149        22.4262 
  53   0.0000       0.825314        22.4579 
  54   0.0000       0.879118        23.9220 
  55   0.0000       0.879305        23.9271 
  56   0.0000       0.880236        23.9524 
  57   0.0000       0.889919        24.2159 
  58   0.0000       1.026760        27.9395 
  59   0.0000       1.026962        27.9451 
  60   0.0000       1.064373        28.9631 
  61   0.0000       1.064770        28.9739 
  62   0.0000       1.120737        30.4968 
  63   0.0000       1.198622        32.6162 
  64   0.0000       1.344789        36.5936 
  65   0.0000       1.358605        36.9695 
  66   0.0000       1.359610        36.9969 
  67   0.0000       1.405931        38.2573 
  68   0.0000       1.406356        38.2689 
  69   0.0000       1.441960        39.2377 
  70   0.0000       1.442256        39.2458 
  71   0.0000       1.675955        45.6051 
  72   0.0000       1.682801        45.7913 
  73   0.0000       1.775661        48.3182 
  74   0.0000       1.799246        48.9600 
  75   0.0000       1.876797        51.0703 
  76   0.0000       1.877555        51.0909 
  77   0.0000       1.928243        52.4702 
  78   0.0000       1.928655        52.4814 
  79   0.0000       2.020742        54.9872 
  80   0.0000       2.021080        54.9964 
  81   0.0000       2.043756        55.6134 
  82   0.0000       2.044206        55.6257 
  83   0.0000       2.188267        59.5458 
  84   0.0000       2.188836        59.5613 
  85   0.0000       2.189568        59.5812 
  86   0.0000       2.440837        66.4186 
  87   0.0000       2.441381        66.4334 
  88   0.0000       2.494738        67.8853 
  89   0.0000       2.545296        69.2610 
  90   0.0000       2.545563        69.2683 
  91   0.0000       2.595420        70.6250 
  92   0.0000       2.595947        70.6393 
  93   0.0000       2.660462        72.3949 
  94   0.0000       2.884098        78.4803 
  95   0.0000       3.207395        87.2776 

                    ********************************
                    * MULLIKEN POPULATION ANALYSIS *
                    ********************************

--------------------------------------------
MULLIKEN ATOMIC CHARGES AND SPIN POPULATIONS
--------------------------------------------
   0 C :   -0.145626    0.000000
   1 C :   -0.136218    0.000000
   2 C :   -0.141333    0.000000
   3 C :   -0.145625    0.000000
   4 C :   -0.136219    0.000000
   5 C :   -0.141333    0.000000
   6 H :    0.143462    0.000000
   7 H :    0.137608    0.000000
   8 H :    0.142107    0.000000
   9 H :    0.143462    0.000000
  10 H :    0.137608    0.000000
  11 H :    0.142107    0.000000
Sum of atomic charges         :   -0.0000000
Sum of atomic spin populations:    0.0000000

-----------------------------------------------------
MULLIKEN REDUCED ORBITAL CHARGES AND SPIN POPULATIONS
-----------------------------------------------------
CHARGE
  0 C s       :     3.217331  s :     3.217331
      pz      :     0.993700  p :     2.897501
      px      :     0.977825
      py      :     0.925976
      dz2     :     0.003035  d :     0.030794
      dxz     :     0.001539
      dyz     :     0.005186
      dx2y2   :     0.012411
      dxy     :     0.008623
  1 C s       :     3.219094  s :     3.219094
      pz      :     0.992971  p :     2.886361
      px      :     0.925234
      py      :     0.968156
      dz2     :     0.003034  d :     0.030763
      dxz     :     0.004784
      dyz     :     0.001942
      dx2y2   :     0.010728
      dxy     :     0.010275
  2 C s       :     3.219242  s :     3.219242
      pz      :     0.993151  p :     2.891322
      px      :     0.943377
      py      :     0.954794
      dz2     :     0.003039  d :     0.030769
      dxz     :     0.003768
      dyz     :     0.002954
      dx2y2   :     0.008375
      dxy     :     0.012634
  3 C s       :     3.217330  s :     3.217330
      pz      :     0.993701  p :     2.897501
      px      :     0.977824
      py      :     0.925976
      dz2     :     0.003035  d :     0.030794
      dxz     :     0.001539
      dyz     :     0.005186
      dx2y2   :     0.012412
      dxy     :     0.008622
  4 C s       :     3.219094  s :     3.219094
      pz      :     0.992971  p :     2.886362
      px      :     0.925234
      py      :     0.968157
      dz2     :     0.003034  d :     0.030763
      dxz     :     0.004784
      dyz     :     0.001942
      dx2y2   :     0.010729
      dxy     :     0.010274
  5 C s       :     3.219241  s :     3.219241
      pz      :     0.993152  p :     2.891322
      px      :     0.943377
      py      :     0.954794
      dz2     :     0.003039  d :     0.030769
      dxz     :     0.003768
      dyz     :     0.002954
      dx2y2   :     0.008375
      dxy     :     0.012634
  6 H s       :     0.856538  s :     0.856538
  7 H s       :     0.862392  s :     0.862392
  8 H s       :     0.857893  s :     0.857893
  9 H s       :     0.856538  s :     0.856538
 10 H s       :     0.862392  s :     0.862392
 11 H s       :     0.857893  s :     0.857893

SPIN
  0 C s       :     0.000000  s :     0.000000
      pz      :     0.000000  p :     0.000000
      px      :     0.000000
      py      :     0.000000
      dz2     :     0.000000  d :     0.000000
      dxz     :     0.000000
      dyz     :     0.000000
      dx2y2   :     0.000000
      dxy     :     0.000000
  1 C s       :     0.000000  s :     0.000000
      pz      :     0.000000  p :     0.000000
      px      :     0.000000
      py      :     0.000000
      dz2     :     0.000000  d :     0.000000
      dxz     :     0.000000
      dyz     :     0.000000
      dx2y2   :     0.000000
      dxy     :     0.000000
  2 C s       :     0.000000  s :     0.000000
      pz      :     0.000000  p :     0.000000
      px      :     0.000000
      py      :     0.000000
      dz2     :     0.000000  d :     0.000000
      dxz     :     0.000000
      dyz     :     0.000000
      dx2y2   :     0.000000
      dxy     :     0.000000
  3 C s       :     0.000000  s :     0.000000
      pz      :     0.000000  p :     0.000000
      px      :     0.000000
      py      :     0.000000
      dz2     :     0.000000  d :     0.000000
      dxz     :     0.000000
      dyz     :     0.000000
      dx2y2   :     0.000000
      dxy     :     0.000000
  4 C s       :     0.000000  s :     0.000000
      pz      :     0.000000  p :     0.000000
      px      :     0.000000
      py      :     0.000000
      dz2     :     0.000000  d :     0.000000
      dxz     :     0.000000
      dyz     :     0.000000
      dx2y2   :     0.000000
      dxy     :     0.000000
  5 C s       :     0.000000  s :     0.000000
      pz      :     0.000000  p :     0.000000
      px      :     0.000000
      py      :     0.000000
      dz2     :     0.000000  d :     0.000000
      dxz     :     0.000000
      dyz     :     0.000000
      dx2y2   :     0.000000
      dxy     :     0.000000
  6 H s       :     0.000000  s :     0.000000
  7 H s       :     0.000000  s :     0.000000
  8 H s       :     0.000000  s :     0.000000
  9 H s       :     0.000000  s :     0.000000
 10 H s       :     0.000000  s :     0.000000
 11 H s       :     0.000000  s :     0.000000

------------------------
MULLIKEN OVERLAP CHARGES
------------------------
B(  0-C ,  1-C ) :   1.0681 B(  0-C ,  2-C ) :  -0.0591 B(  0-C ,  3-C ) :  -0.0710 
B(  0-C ,  4-C ) :  -0.0575 B(  0-C ,  5-C ) :   1.0669 B(  0-C ,  6-H ) :   0.7128 
B(  0-C ,  7-H ) :  -0.0838 B(  0-C , 11-H ) :  -0.0829 B(  1-C ,  2-C ) :   1.0679 
B(  1-C ,  3-C ) :  -0.0575 B(  1-C ,  4-C ) :  -0.0713 B(  1-C ,  5-C ) :  -0.0566 
B(  1-C ,  6-H ) :  -0.0827 B(  1-C ,  7-H ) :   0.7141 B(  1-C ,  8-H ) :  -0.0832 
B(  2-C ,  3-C ) :   1.0669 B(  2-C ,  4-C ) :  -0.0566 B(  2-C ,  5-C ) :  -0.0705 
B(  2-C ,  7-H ) :  -0.0845 B(  2-C ,  8-H ) :   0.7134 B(  2-C ,  9-H ) :  -0.0825 
B(  3-C ,  4-C ) :   1.0681 B(  3-C ,  5-C ) :  -0.0591 B(  3-C ,  8-H ) :  -0.0829 
B(  3-C ,  9-H ) :   0.7128 B(  3-C , 10-H ) :  -0.0838 B(  4-C ,  5-C ) :   1.0679 
B(  4-C ,  9-H ) :  -0.0827 B(  4-C , 10-H ) :   0.7141 B(  4-C , 11-H ) :  -0.0832 
B(  5-C ,  6-H ) :  -0.0825 B(  5-C , 10-H ) :  -0.0845 B(  5-C , 11-H ) :   0.7134 



                     *******************************
                     * LOEWDIN POPULATION ANALYSIS *
                     *******************************

-------------------------------------------
LOEWDIN ATOMIC CHARGES AND SPIN POPULATIONS
-------------------------------------------
   0 C :   -0.136429    0.000000
   1 C :   -0.134140    0.000000
   2 C :   -0.135878    0.000000
   3 C :   -0.136429    0.000000
   4 C :   -0.134140    0.000000
   5 C :   -0.135878    0.000000
   6 H :    0.135930    0.000000
   7 H :    0.134505    0.000000
   8 H :    0.136011    0.000000
   9 H :    0.135930    0.000000
  10 H :    0.134505    0.000000
  11 H :    0.136011    0.000000

----------------------------------------------------
LOEWDIN REDUCED ORBITAL CHARGES AND SPIN POPULATIONS
----------------------------------------------------
CHARGE
  0 C s       :     2.943640  s :     2.943640
      pz      :     0.986269  p :     3.118795
      px      :     1.072090
      py      :     1.060436
      dz2     :     0.005302  d :     0.073993
      dxz     :     0.002725
      dyz     :     0.011146
      dx2y2   :     0.030521
      dxy     :     0.024299
  1 C s       :     2.943631  s :     2.943631
      pz      :     0.985985  p :     3.116385
      px      :     1.060602
      py      :     1.069798
      dz2     :     0.005298  d :     0.074124
      dxz     :     0.010214
      dyz     :     0.003662
      dx2y2   :     0.027862
      dxy     :     0.027087
  2 C s       :     2.943722  s :     2.943722
      pz      :     0.986179  p :     3.118166
      px      :     1.064779
      py      :     1.067208
      dz2     :     0.005298  d :     0.073990
      dxz     :     0.007859
      dyz     :     0.005997
      dx2y2   :     0.023923
      dxy     :     0.030912
  3 C s       :     2.943640  s :     2.943640
      pz      :     0.986270  p :     3.118796
      px      :     1.072090
      py      :     1.060436
      dz2     :     0.005302  d :     0.073993
      dxz     :     0.002725
      dyz     :     0.011146
      dx2y2   :     0.030522
      dxy     :     0.024299
  4 C s       :     2.943630  s :     2.943630
      pz      :     0.985985  p :     3.116385
      px      :     1.060601
      py      :     1.069799
      dz2     :     0.005298  d :     0.074124
      dxz     :     0.010214
      dyz     :     0.003662
      dx2y2   :     0.027862
      dxy     :     0.027087
  5 C s       :     2.943721  s :     2.943721
      pz      :     0.986180  p :     3.118167
      px      :     1.064778
      py      :     1.067209
      dz2     :     0.005298  d :     0.073990
      dxz     :     0.007859
      dyz     :     0.005997
      dx2y2   :     0.023924
      dxy     :     0.030912
  6 H s       :     0.864070  s :     0.864070
  7 H s       :     0.865495  s :     0.865495
  8 H s       :     0.863989  s :     0.863989
  9 H s       :     0.864070  s :     0.864070
 10 H s       :     0.865495  s :     0.865495
 11 H s       :     0.863989  s :     0.863989

SPIN
  0 C s       :     0.000000  s :     0.000000
      pz      :     0.000000  p :     0.000000
      px      :     0.000000
      py      :     0.000000
      dz2     :     0.000000  d :     0.000000
      dxz     :     0.000000
      dyz     :     0.000000
      dx2y2   :     0.000000
      dxy     :     0.000000
  1 C s       :     0.000000  s :     0.000000
      pz      :     0.000000  p :     0.000000
      px      :     0.000000
      py      :     0.000000
      dz2     :     0.000000  d :     0.000000
      dxz     :     0.000000
      dyz     :     0.000000
      dx2y2   :     0.000000
      dxy     :     0.000000
  2 C s       :     0.000000  s :     0.000000
      pz      :     0.000000  p :     0.000000
      px      :     0.000000
      py      :     0.000000
      dz2     :     0.000000  d :     0.000000
      dxz     :     0.000000
      dyz     :     0.000000
      dx2y2   :     0.000000
      dxy     :     0.000000
  3 C s       :     0.000000  s :     0.000000
      pz      :     0.000000  p :     0.000000
      px      :     0.000000
      py      :     0.000000
      dz2     :     0.000000  d :     0.000000
      dxz     :     0.000000
      dyz     :     0.000000
      dx2y2   :     0.000000
      dxy     :     0.000000
  4 C s       :     0.000000  s :     0.000000
      pz      :     0.000000  p :     0.000000
      px      :     0.000000
      py      :     0.000000
      dz2     :     0.000000  d :     0.000000
      dxz     :     0.000000
      dyz     :     0.000000
      dx2y2   :     0.000000
      dxy     :     0.000000
  5 C s       :     0.000000  s :     0.000000
      pz      :     0.000000  p :     0.000000
      px      :     0.000000
      py      :     0.000000
      dz2     :     0.000000  d :     0.000000
      dxz     :     0.000000
      dyz     :     0.000000
      dx2y2   :     0.000000
      dxy     :     0.000000
  6 H s       :     0.000000  s :     0.000000
  7 H s       :     0.000000  s :     0.000000
  8 H s       :     0.000000  s :     0.000000
  9 H s       :     0.000000  s :     0.000000
 10 H s       :     0.000000  s :     0.000000
 11 H s       :     0.000000  s :     0.000000

---------------------------------
LOEWDIN BOND ORDERS (THRESH 0.050000)
---------------------------------
B(  0-C ,  1-C ) :   1.4996 B(  0-C ,  2-C ) :   0.0648 B(  0-C ,  3-C ) :   0.1181 
B(  0-C ,  4-C ) :   0.0649 B(  0-C ,  5-C ) :   1.5000 B(  0-C ,  6-H ) :   0.9074 
B(  1-C ,  2-C ) :   1.5001 B(  1-C ,  3-C ) :   0.0649 B(  1-C ,  4-C ) :   0.1178 
B(  1-C ,  5-C ) :   0.0649 B(  1-C ,  7-H ) :   0.9080 B(  2-C ,  3-C ) :   1.5000 
B(  2-C ,  4-C ) :   0.0649 B(  2-C ,  5-C ) :   0.1175 B(  2-C ,  8-H ) :   0.9074 
B(  3-C ,  4-C ) :   1.4996 B(  3-C ,  5-C ) :   0.0648 B(  3-C ,  9-H ) :   0.9074 
B(  4-C ,  5-C ) :   1.5001 B(  4-C , 10-H ) :   0.9080 B(  5-C , 11-H ) :   0.9074 


------------------------------------------
LOEWDIN REDUCED ORBITAL POPULATIONS PER MO
-------------------------------------------
THRESHOLD FOR PRINTING IS 0.1%
SPIN UP
                      0         1         2         3         4         5   
                  -9.91871  -9.91870  -9.91856  -9.91848  -9.91840  -9.91838
                   1.00000   1.00000   1.00000   1.00000   1.00000   1.00000
                  --------  --------  --------  --------  --------  --------
 0 C  s              37.9      41.7       0.1      13.9       0.1       6.0
 0 C  py              0.0       0.0       0.2       0.0       0.1       0.0
 1 C  s               6.8       2.4      23.0      14.1      28.8      24.3
 2 C  s               7.1       3.6      26.5      21.9      20.3      20.2
 3 C  s              33.8      45.7       0.0      13.9       0.1       6.0
 3 C  py              0.0       0.0       0.2       0.0       0.1       0.0
 4 C  s               6.4       2.9      23.1      13.8      29.6      23.7
 5 C  s               7.7       3.1      26.7      21.8      20.8      19.5

                      6         7         8         9        10        11   
                  -0.75423  -0.66258  -0.66248  -0.53574  -0.53573  -0.45922
                   1.00000   1.00000   1.00000   1.00000   1.00000   1.00000
                  --------  --------  --------  --------  --------  --------
 0 C  s              12.8      17.8       2.3       0.0      10.3       0.4
 0 C  px              2.1       0.1       0.2       0.2       3.3      11.3
 0 C  py              0.1       0.9       7.3      13.2       0.0       0.3
 0 C  dz2             0.1       0.1       0.0       0.0       0.0       0.0
 0 C  dxy             0.0       0.0       0.2       0.2       0.0       0.0
 1 C  s              12.8      11.7       8.4       7.2       3.1       0.4
 1 C  px              0.3       3.0       4.4       5.8       6.3       1.5
 1 C  py              1.9       0.6       0.6       0.5       4.0      10.1
 1 C  dz2             0.1       0.1       0.1       0.0       0.0       0.0
 1 C  dx2y2           0.0       0.0       0.1       0.1       0.0       0.0
 2 C  s              12.7       0.7      19.4       8.3       2.1       0.4
 2 C  px              0.8       4.9       0.2       5.2       4.2       4.5
 2 C  py              1.3       3.3       0.1       0.1       7.1       7.0
 2 C  dz2             0.1       0.0       0.1       0.0       0.0       0.0
 2 C  dx2y2           0.0       0.2       0.0       0.0       0.1       0.0
 3 C  s              12.8      17.8       2.3       0.0      10.3       0.4
 3 C  px              2.1       0.1       0.2       0.2       3.3      11.3
 3 C  py              0.1       0.9       7.3      13.2       0.0       0.3
 3 C  dz2             0.1       0.1       0.0       0.0       0.0       0.0
 3 C  dxy             0.0       0.0       0.2       0.2       0.0       0.0
 4 C  s              12.8      11.7       8.4       7.2       3.1       0.4
 4 C  px              0.3       3.0       4.4       5.8       6.3       1.5
 4 C  py              1.9       0.6       0.6       0.5       4.0      10.1
 4 C  dz2             0.1       0.1       0.1       0.0       0.0       0.0
 4 C  dx2y2           0.0       0.0       0.1       0.1       0.0       0.0
 5 C  s              12.7       0.7      19.4       8.3       2.1       0.4
 5 C  px              0.8       4.9       0.2       5.2       4.2       4.5
 5 C  py              1.3       3.3       0.1       0.1       7.1       7.0
 5 C  dz2             0.1       0.0       0.1       0.0       0.0       0.0
 5 C  dx2y2           0.0       0.2       0.0       0.0       0.1       0.0
 6 H  s               1.7       3.9       0.5       0.0       6.1       4.7
 7 H  s               1.7       2.5       1.8       4.3       1.8       4.8
 8 H  s               1.7       0.1       4.2       4.9       1.2       4.7
 9 H  s               1.7       3.9       0.5       0.0       6.1       4.7
10 H  s               1.7       2.5       1.8       4.3       1.8       4.8
11 H  s               1.7       0.1       4.2       4.9       1.2       4.7

                     12        13        14        15        16        17   
                  -0.41676  -0.38148  -0.36819  -0.36805  -0.31057  -0.29916
                   1.00000   1.00000   1.00000   1.00000   1.00000   1.00000
                  --------  --------  --------  --------  --------  --------
 0 C  s               3.5       0.0       0.5       0.0       0.0       0.0
 0 C  pz              0.0       0.0       0.0       0.0      16.6       0.0
 0 C  px              5.5       0.4      19.6       1.2       0.0       1.4
 0 C  py              0.1      16.2       0.2       1.6       0.0      11.4
 0 C  dx2y2           0.4       0.0       0.1       0.1       0.0       0.0
 0 C  dxy             0.0       0.1       0.1       0.3       0.0       0.3
 1 C  s               3.5       0.0       0.3       0.2       0.0       0.0
 1 C  pz              0.0       0.0       0.0       0.0      16.6       0.0
 1 C  px              0.7      14.5       0.3       3.5       0.0       2.1
 1 C  py              4.9       2.2      11.4       7.3       0.0       9.0
 1 C  dx2y2           0.2       0.0       0.0       0.2       0.0       0.1
 1 C  dxy             0.2       0.0       0.3       0.0       0.0       0.6
 2 C  s               3.5       0.0       0.0       0.5       0.0       0.1
 2 C  pz              0.0       0.0       0.0       0.0      16.6       0.0
 2 C  px              2.2      10.1       0.1       9.0       0.0       1.0
 2 C  py              3.4       6.5       2.4      11.2       0.0       8.9
 2 C  dx2y2           0.0       0.1       0.4       0.0       0.0       0.0
 2 C  dxy             0.4       0.0       0.0       0.1       0.0       0.9
 3 C  s               3.5       0.0       0.5       0.0       0.0       0.0
 3 C  pz              0.0       0.0       0.0       0.0      16.6       0.0
 3 C  px              5.5       0.4      19.6       1.2       0.0       1.4
 3 C  py              0.1      16.2       0.2       1.6       0.0      11.4
 3 C  dx2y2           0.4       0.0       0.1       0.1       0.0       0.0
 3 C  dxy             0.0       0.1       0.1       0.3       0.0       0.3
 4 C  s               3.5       0.0       0.3       0.2       0.0       0.0
 4 C  pz              0.0       0.0       0.0       0.0      16.6       0.0
 4 C  px              0.7      14.5       0.3       3.5       0.0       2.1
 4 C  py              4.9       2.2      11.4       7.3       0.0       9.0
 4 C  dx2y2           0.2       0.0       0.0       0.2       0.0       0.1
 4 C  dxy             0.2       0.0       0.3       0.0       0.0       0.6
 5 C  s               3.5       0.0       0.0       0.5       0.0       0.1
 5 C  pz              0.0       0.0       0.0       0.0      16.6       0.0
 5 C  px              2.2      10.1       0.1       9.0       0.0       1.0
 5 C  py              3.4       6.5       2.4      11.2       0.0       8.9
 5 C  dx2y2           0.0       0.1       0.4       0.0       0.0       0.0
 5 C  dxy             0.4       0.0       0.0       0.1       0.0       0.9
 6 H  s               7.2       0.0       8.9       0.8       0.0       0.4
 7 H  s               7.2       0.0       5.1       4.6       0.0       5.2
 8 H  s               7.2       0.0       0.5       9.1       0.0       8.5
 9 H  s               7.2       0.0       8.9       0.8       0.0       0.4
10 H  s               7.2       0.0       5.1       4.6       0.0       5.2
11 H  s               7.2       0.0       0.5       9.1       0.0       8.5

                     18        19        20        21        22        23   
                  -0.29910  -0.21715  -0.21703  -0.03660  -0.03631   0.06471
                   1.00000   1.00000   1.00000   0.00000   0.00000   0.00000
                  --------  --------  --------  --------  --------  --------
 0 C  s               0.1       0.0       0.0       0.0       0.0       2.7
 0 C  pz              0.0       2.2      30.5      29.9       1.8       0.0
 0 C  px              8.3       0.0       0.0       0.0       0.0       2.7
 0 C  py              1.5       0.0       0.0       0.0       0.0       0.1
 0 C  dxz             0.0       0.0       0.0       0.3       0.0       0.0
 0 C  dyz             0.0       0.5       0.0       0.0       1.3       0.0
 0 C  dx2y2           0.9       0.0       0.0       0.0       0.0       1.0
 0 C  dxy             0.0       0.0       0.0       0.0       0.0       0.1
 1 C  s               0.0       0.0       0.0       0.0       0.0       2.9
 1 C  pz              0.0      16.3      16.4      15.3      16.5       0.0
 1 C  px             10.5       0.0       0.0       0.0       0.0       0.4
 1 C  py              1.0       0.0       0.0       0.0       0.0       2.5
 1 C  dz2             0.0       0.0       0.0       0.0       0.0       0.1
 1 C  dxz             0.0       0.3       0.2       0.4       0.8       0.0
 1 C  dyz             0.0       0.0       0.1       0.4       0.0       0.0
 1 C  dx2y2           0.6       0.0       0.0       0.0       0.0       0.6
 1 C  dxy             0.0       0.0       0.0       0.0       0.0       0.5
 2 C  s               0.0       0.0       0.0       0.0       0.0       2.6
 2 C  pz              0.0      30.6       2.2       2.4      29.3       0.0
 2 C  px             10.7       0.0       0.0       0.0       0.0       1.1
 2 C  py              2.0       0.0       0.0       0.0       0.0       1.7
 2 C  dxz             0.0       0.1       0.3       0.6       0.3       0.0
 2 C  dyz             0.0       0.0       0.2       0.6       0.0       0.0
 2 C  dx2y2           0.3       0.0       0.0       0.0       0.0       0.1
 2 C  dxy             0.0       0.0       0.0       0.0       0.0       1.1
 3 C  s               0.1       0.0       0.0       0.0       0.0       2.7
 3 C  pz              0.0       2.2      30.5      29.9       1.8       0.0
 3 C  px              8.3       0.0       0.0       0.0       0.0       2.7
 3 C  py              1.5       0.0       0.0       0.0       0.0       0.1
 3 C  dxz             0.0       0.0       0.0       0.3       0.0       0.0
 3 C  dyz             0.0       0.5       0.0       0.0       1.3       0.0
 3 C  dx2y2           0.9       0.0       0.0       0.0       0.0       1.0
 3 C  dxy             0.0       0.0       0.0       0.0       0.0       0.1
 4 C  s               0.0       0.0       0.0       0.0       0.0       2.9
 4 C  pz              0.0      16.3      16.4      15.3      16.5       0.0
 4 C  px             10.5       0.0       0.0       0.0       0.0       0.4
 4 C  py              1.0       0.0       0.0       0.0       0.0       2.5
 4 C  dz2             0.0       0.0       0.0       0.0       0.0       0.1
 4 C  dxz             0.0       0.3       0.2       0.4       0.8       0.0
 4 C  dyz             0.0       0.0       0.1       0.4       0.0       0.0
 4 C  dx2y2           0.6       0.0       0.0       0.0       0.0       0.6
 4 C  dxy             0.0       0.0       0.0       0.0       0.0       0.5
 5 C  s               0.0       0.0       0.0       0.0       0.0       2.6
 5 C  pz              0.0      30.6       2.2       2.4      29.3       0.0
 5 C  px             10.7       0.0       0.0       0.0       0.0       1.1
 5 C  py              2.0       0.0       0.0       0.0       0.0       1.7
 5 C  dxz             0.0       0.1       0.3       0.6       0.3       0.0
 5 C  dyz             0.0       0.0       0.2       0.6       0.0       0.0
 5 C  dx2y2           0.3       0.0       0.0       0.0       0.0       0.1
 5 C  dxy             0.0       0.0       0.0       0.0       0.0       1.1
 6 H  s               9.0       0.0       0.0       0.0       0.0       9.8
 7 H  s               4.2       0.0       0.0       0.0       0.0      10.2
 8 H  s               0.9       0.0       0.0       0.0       0.0       9.7
 9 H  s               9.0       0.0       0.0       0.0       0.0       9.8
10 H  s               4.2       0.0       0.0       0.0       0.0      10.2
11 H  s               0.9       0.0       0.0       0.0       0.0       9.7

                     24        25        26        27        28        29   
                   0.09814   0.11662   0.11841   0.14379   0.14429   0.15416
                   0.00000   0.00000   0.00000   0.00000   0.00000   0.00000
                  --------  --------  --------  --------  --------  --------
 0 C  s               0.0       0.8       1.8       0.0      13.0       5.1
 0 C  pz             16.1       0.0       0.0       0.0       0.0       0.0
 0 C  px              0.0       3.0       6.9       0.0       2.0       1.2
 0 C  py              0.0       0.5       0.2       2.3       0.0       0.0
 0 C  dz2             0.0       0.0       0.0       0.0       0.9       0.4
 0 C  dxz             0.5       0.0       0.0       0.0       0.0       0.0
 0 C  dx2y2           0.0       0.4       0.4       0.1       0.4       0.1
 0 C  dxy             0.0       0.1       0.3       0.8       0.0       0.0
 1 C  s               0.0       2.7       0.0       9.9       3.0       5.1
 1 C  pz             16.1       0.0       0.0       0.0       0.0       0.0
 1 C  px              0.0       1.4       0.3       0.3       1.9       0.1
 1 C  py              0.0       8.8       0.2       1.7       0.3       1.0
 1 C  dz2             0.0       0.1       0.0       0.7       0.2       0.4
 1 C  dyz             0.5       0.0       0.0       0.0       0.0       0.0
 1 C  dx2y2           0.0       0.4       0.1       0.5       0.1       0.1
 1 C  dxy             0.0       0.3       0.2       0.0       0.7       0.0
 2 C  s               0.0       0.5       2.1       9.7       3.4       5.1
 2 C  pz             16.1       0.0       0.0       0.0       0.0       0.0
 2 C  px              0.0       0.6       3.7       0.4       1.8       0.5
 2 C  py              0.0       1.6       4.7       1.7       0.4       0.8
 2 C  dz2             0.0       0.0       0.0       0.7       0.2       0.4
 2 C  dxz             0.2       0.0       0.0       0.0       0.0       0.0
 2 C  dyz             0.3       0.0       0.0       0.0       0.0       0.0
 2 C  dx2y2           0.0       0.1       0.2       0.4       0.5       0.0
 2 C  dxy             0.0       0.2       0.5       0.2       0.2       0.1
 3 C  s               0.0       0.8       1.8       0.0      13.0       5.1
 3 C  pz             16.1       0.0       0.0       0.0       0.0       0.0
 3 C  px              0.0       3.0       6.9       0.0       2.0       1.2
 3 C  py              0.0       0.5       0.2       2.3       0.0       0.0
 3 C  dz2             0.0       0.0       0.0       0.0       0.9       0.4
 3 C  dxz             0.5       0.0       0.0       0.0       0.0       0.0
 3 C  dx2y2           0.0       0.4       0.4       0.1       0.4       0.1
 3 C  dxy             0.0       0.1       0.3       0.8       0.0       0.0
 4 C  s               0.0       2.7       0.0       9.9       3.0       5.1
 4 C  pz             16.1       0.0       0.0       0.0       0.0       0.0
 4 C  px              0.0       1.4       0.3       0.3       1.9       0.1
 4 C  py              0.0       8.8       0.2       1.7       0.3       1.0
 4 C  dz2             0.0       0.1       0.0       0.7       0.2       0.4
 4 C  dyz             0.5       0.0       0.0       0.0       0.0       0.0
 4 C  dx2y2           0.0       0.4       0.1       0.5       0.1       0.1
 4 C  dxy             0.0       0.3       0.2       0.0       0.7       0.0
 5 C  s               0.0       0.5       2.1       9.7       3.4       5.1
 5 C  pz             16.1       0.0       0.0       0.0       0.0       0.0
 5 C  px              0.0       0.6       3.7       0.4       1.8       0.5
 5 C  py              0.0       1.6       4.7       1.7       0.4       0.8
 5 C  dz2             0.0       0.0       0.0       0.7       0.2       0.4
 5 C  dxz             0.2       0.0       0.0       0.0       0.0       0.0
 5 C  dyz             0.3       0.0       0.0       0.0       0.0       0.0
 5 C  dx2y2           0.0       0.1       0.2       0.4       0.5       0.0
 5 C  dxy             0.0       0.2       0.5       0.2       0.2       0.1
 6 H  s               0.0       5.9      12.9       0.0      13.9      10.0
 7 H  s               0.0      19.1       0.1      10.3       3.2       9.7
 8 H  s               0.0       3.5      15.4      10.3       3.7      10.0
 9 H  s               0.0       5.9      12.9       0.0      13.9      10.0
10 H  s               0.0      19.1       0.1      10.3       3.2       9.7
11 H  s               0.0       3.5      15.4      10.3       3.7      10.0

                     30        31        32        33        34        35   
                   0.24875   0.25011   0.25726   0.25785   0.44654   0.45518
                   0.00000   0.00000   0.00000   0.00000   0.00000   0.00000
                  --------  --------  --------  --------  --------  --------
 0 C  s               0.8       3.0       1.1       3.7       0.0       5.4
 0 C  px              2.7       7.8       1.3       1.3       0.4       4.5
 0 C  py              4.6       1.9      11.5       4.1      14.1       0.1
 0 C  dz2             0.2       0.7       0.1       0.4       0.0       2.3
 0 C  dx2y2           0.1       0.8       0.0       3.0       0.2       0.0
 0 C  dxy             3.9       0.6       3.9       0.2       2.1       0.0
 1 C  s               3.7       0.0       1.3       3.4       0.0       5.4
 1 C  px              1.5       5.3       8.9       5.2      12.1       0.6
 1 C  py              9.1       1.0       3.2       0.8       1.8       4.0
 1 C  dz2             0.9       0.0       0.2       0.4       0.0       2.3
 1 C  dx2y2           0.3       2.1       0.3       3.2       1.1       0.0
 1 C  dxy             0.1       2.8       3.5       0.0       1.3       0.0
 2 C  s               1.1       2.7       4.8       0.0       0.0       5.4
 2 C  px              5.4       2.5       0.9       9.7       8.8       1.8
 2 C  py              2.1       6.8       1.5       6.2       5.7       2.8
 2 C  dz2             0.3       0.6       0.6       0.0       0.0       2.3
 2 C  dx2y2           3.6       1.1       0.1       4.1       2.2       0.0
 2 C  dxy             0.0       0.6       2.8       0.2       0.1       0.0
 3 C  s               0.8       3.0       1.1       3.7       0.0       5.4
 3 C  px              2.7       7.8       1.3       1.3       0.4       4.5
 3 C  py              4.6       1.9      11.5       4.1      14.1       0.1
 3 C  dz2             0.2       0.7       0.1       0.4       0.0       2.3
 3 C  dx2y2           0.1       0.8       0.0       3.0       0.2       0.0
 3 C  dxy             3.9       0.6       3.9       0.2       2.1       0.0
 4 C  s               3.7       0.0       1.3       3.4       0.0       5.4
 4 C  px              1.5       5.3       8.9       5.2      12.1       0.6
 4 C  py              9.1       0.9       3.2       0.8       1.8       4.0
 4 C  dz2             0.9       0.0       0.2       0.4       0.0       2.3
 4 C  dx2y2           0.3       2.1       0.3       3.2       1.1       0.0
 4 C  dxy             0.1       2.8       3.5       0.0       1.3       0.0
 5 C  s               1.1       2.7       4.8       0.0       0.0       5.4
 5 C  px              5.4       2.5       0.9       9.7       8.8       1.8
 5 C  py              2.1       6.8       1.5       6.2       5.7       2.8
 5 C  dz2             0.3       0.6       0.6       0.0       0.0       2.3
 5 C  dx2y2           3.6       1.1       0.1       4.1       2.2       0.0
 5 C  dxy             0.0       0.6       2.8       0.2       0.1       0.0
 6 H  s               1.3       5.0       0.6       2.1       0.0       4.4
 7 H  s               6.4       0.0       0.8       2.0       0.0       4.4
 8 H  s               1.9       4.4       2.8       0.0       0.0       4.4
 9 H  s               1.3       5.0       0.6       2.1       0.0       4.4
10 H  s               6.4       0.0       0.8       2.0       0.0       4.4
11 H  s               1.9       4.4       2.8       0.0       0.0       4.4

                     36        37        38        39        40        41   
                   0.47622   0.48548   0.49713   0.53642   0.53857   0.55773
                   0.00000   0.00000   0.00000   0.00000   0.00000   0.00000
                  --------  --------  --------  --------  --------  --------
 0 C  s               0.0       0.0       1.5       0.2       0.4       9.3
 0 C  pz              0.0      16.7       0.0       0.0       0.0       0.0
 0 C  px              0.3       0.0       8.5       2.2       1.1       0.3
 0 C  py             13.1       0.0       0.2      15.3       7.7       0.1
 0 C  dz2             0.0       0.0       0.1       0.8       1.5       2.0
 0 C  dx2y2           0.3       0.0       2.8       0.1       0.0       0.2
 0 C  dxy             2.9       0.0       0.3       0.1       0.1       0.0
 1 C  s               0.0       0.0       1.5       0.6       0.0       9.2
 1 C  pz              0.0      16.5       0.0       0.0       0.0       0.0
 1 C  px             11.8       0.0       1.1       0.2      20.4       0.0
 1 C  py              1.7       0.0       7.3       3.0       2.8       0.2
 1 C  dz2             0.0       0.0       0.1       2.0       0.0       2.3
 1 C  dx2y2           1.4       0.0       1.7       0.0       0.1       0.1
 1 C  dxy             1.8       0.0       1.4       0.0       0.1       0.1
 2 C  s               0.0       0.0       1.5       0.1       0.4       9.3
 2 C  pz              0.0      16.7       0.0       0.0       0.0       0.0
 2 C  px              8.3       0.0       3.6      14.0       0.9       0.2
 2 C  py              5.3       0.0       5.1       4.7       6.4       0.1
 2 C  dz2             0.0       0.0       0.1       0.6       1.8       1.8
 2 C  dx2y2           3.1       0.0       0.1       0.1       0.1       0.0
 2 C  dxy             0.1       0.0       2.9       0.0       0.0       0.2
 3 C  s               0.0       0.0       1.5       0.2       0.4       9.3
 3 C  pz              0.0      16.7       0.0       0.0       0.0       0.0
 3 C  px              0.3       0.0       8.5       2.2       1.1       0.3
 3 C  py             13.1       0.0       0.2      15.3       7.7       0.1
 3 C  dz2             0.0       0.0       0.1       0.8       1.5       2.0
 3 C  dx2y2           0.3       0.0       2.8       0.1       0.0       0.2
 3 C  dxy             2.9       0.0       0.3       0.1       0.1       0.0
 4 C  s               0.0       0.0       1.5       0.6       0.0       9.2
 4 C  pz              0.0      16.5       0.0       0.0       0.0       0.0
 4 C  px             11.8       0.0       1.1       0.2      20.4       0.0
 4 C  py              1.7       0.0       7.3       3.0       2.8       0.2
 4 C  dz2             0.0       0.0       0.1       2.0       0.0       2.3
 4 C  dx2y2           1.4       0.0       1.7       0.0       0.1       0.1
 4 C  dxy             1.8       0.0       1.4       0.0       0.1       0.1
 5 C  s               0.0       0.0       1.5       0.1       0.4       9.3
 5 C  pz              0.0      16.7       0.0       0.0       0.0       0.0
 5 C  px              8.3       0.0       3.6      14.0       0.9       0.2
 5 C  py              5.3       0.0       5.1       4.7       6.4       0.1
 5 C  dz2             0.0       0.0       0.1       0.6       1.8       1.8
 5 C  dx2y2           3.1       0.0       0.1       0.1       0.1       0.0
 5 C  dxy             0.1       0.0       2.9       0.0       0.0       0.2
 6 H  s               0.0       0.0       3.5       1.4       2.7       4.7
 7 H  s               0.0       0.0       3.3       3.6       0.0       5.4
 8 H  s               0.0       0.0       3.4       1.0       3.4       4.4
 9 H  s               0.0       0.0       3.5       1.4       2.7       4.7
10 H  s               0.0       0.0       3.3       3.6       0.0       5.4
11 H  s               0.0       0.0       3.4       1.0       3.4       4.4

                     42        43        44        45        46        47   
                   0.55990   0.56083   0.57724   0.57881   0.61456   0.61697
                   0.00000   0.00000   0.00000   0.00000   0.00000   0.00000
                  --------  --------  --------  --------  --------  --------
 0 C  s               0.0       0.0       2.5       2.2       0.0       0.0
 0 C  pz             16.2      17.1       0.0       0.0      29.2       3.6
 0 C  px              0.0       0.0       0.5       0.1       0.0       0.0
 0 C  py              0.0       0.0       7.4       9.1       0.0       0.0
 0 C  dz2             0.0       0.0       2.1       1.9       0.0       0.0
 0 C  dxz             0.2       0.2       0.0       0.0       0.3       0.0
 0 C  dyz             0.0       0.0       0.0       0.0       0.0       0.1
 1 C  s               0.0       0.0       0.2       4.3       0.0       0.0
 1 C  pz              2.6      30.3       0.0       0.0      19.0      14.1
 1 C  px              0.0       0.0      14.2       1.0       0.0       0.0
 1 C  py              0.0       0.0       2.4       0.1       0.0       0.0
 1 C  dz2             0.0       0.0       0.2       3.8       0.0       0.0
 1 C  dxz             0.0       0.0       0.0       0.0       0.0       0.1
 1 C  dyz             0.0       0.3       0.0       0.0       0.2       0.1
 2 C  s               0.0       0.0       4.2       0.4       0.0       0.0
 2 C  pz             30.6       2.0       0.0       0.0       1.2      31.6
 2 C  px              0.0       0.0       1.2       9.0       0.0       0.0
 2 C  py              0.0       0.0       0.3       6.4       0.0       0.0
 2 C  dz2             0.0       0.0       3.6       0.3       0.0       0.0
 2 C  dxz             0.1       0.0       0.0       0.0       0.0       0.2
 2 C  dyz             0.2       0.0       0.0       0.0       0.1       0.1
 3 C  s               0.0       0.0       2.5       2.2       0.0       0.0
 3 C  pz             16.2      17.1       0.0       0.0      29.2       3.6
 3 C  px              0.0       0.0       0.5       0.1       0.0       0.0
 3 C  py              0.0       0.0       7.4       9.1       0.0       0.0
 3 C  dz2             0.0       0.0       2.1       1.9       0.0       0.0
 3 C  dxz             0.2       0.2       0.0       0.0       0.3       0.0
 3 C  dyz             0.0       0.0       0.0       0.0       0.0       0.1
 4 C  s               0.0       0.0       0.2       4.3       0.0       0.0
 4 C  pz              2.6      30.3       0.0       0.0      19.0      14.1
 4 C  px              0.0       0.0      14.2       1.0       0.0       0.0
 4 C  py              0.0       0.0       2.4       0.1       0.0       0.0
 4 C  dz2             0.0       0.0       0.2       3.8       0.0       0.0
 4 C  dxz             0.0       0.0       0.0       0.0       0.0       0.1
 4 C  dyz             0.0       0.3       0.0       0.0       0.2       0.1
 5 C  s               0.0       0.0       4.2       0.4       0.0       0.0
 5 C  pz             30.6       2.0       0.0       0.0       1.2      31.6
 5 C  px              0.0       0.0       1.2       9.0       0.0       0.0
 5 C  py              0.0       0.0       0.3       6.4       0.0       0.0
 5 C  dz2             0.0       0.0       3.6       0.3       0.0       0.0
 5 C  dxz             0.1       0.0       0.0       0.0       0.0       0.2
 5 C  dyz             0.2       0.0       0.0       0.0       0.1       0.1
 6 H  s               0.0       0.0       4.0       3.6       0.0       0.0
 7 H  s               0.0       0.0       0.4       7.2       0.0       0.0
 8 H  s               0.0       0.0       6.8       0.6       0.0       0.0
 9 H  s               0.0       0.0       4.0       3.6       0.0       0.0
10 H  s               0.0       0.0       0.4       7.2       0.0       0.0
11 H  s               0.0       0.0       6.8       0.6       0.0       0.0

                     48        49        50        51        52        53   
                   0.68884   0.77362   0.78818   0.78853   0.82415   0.82531
                   0.00000   0.00000   0.00000   0.00000   0.00000   0.00000
                  --------  --------  --------  --------  --------  --------
 0 C  s               0.0       0.2       0.8       0.1       2.0       2.4
 0 C  pz             15.9       0.0       0.0       0.0       0.0       0.0
 0 C  px              0.0      11.2      12.6       0.7       4.8       3.8
 0 C  py              0.0       0.3       0.2       0.7       1.1       2.3
 0 C  dz2             0.0       0.0       0.8       0.1       0.3       0.2
 0 C  dxz             0.4       0.0       0.0       0.0       0.0       0.0
 0 C  dx2y2           0.0       0.3       1.2       0.1       1.1       0.9
 0 C  dxy             0.0       0.0       0.2       0.1       0.0       0.3
 1 C  s               0.0       0.2       0.4       0.4       0.3       4.2
 1 C  pz             16.4       0.0       0.0       0.0       0.0       0.0
 1 C  px              0.0       1.4       0.3       1.8       1.9       2.1
 1 C  py              0.0       9.6       6.5       5.2       1.8       6.5
 1 C  dz2             0.0       0.0       0.4       0.4       0.0       0.4
 1 C  dyz             0.3       0.0       0.0       0.0       0.0       0.0
 1 C  dx2y2           0.0       0.1       0.2       0.6       0.3       1.0
 1 C  dxy             0.0       0.1       0.5       0.2       0.0       1.1
 2 C  s               0.0       0.2       0.1       0.8       3.8       0.2
 2 C  pz             16.6       0.0       0.0       0.0       0.0       0.0
 2 C  px              0.0       4.4       0.0       5.5       4.3       1.1
 2 C  py              0.0       6.9       1.3       7.2       4.4       2.3
 2 C  dz2             0.0       0.0       0.1       0.8       0.5       0.0
 2 C  dxz             0.2       0.0       0.0       0.0       0.0       0.0
 2 C  dyz             0.2       0.0       0.0       0.0       0.0       0.0
 2 C  dx2y2           0.0       0.0       0.1       0.1       0.1       0.2
 2 C  dxy             0.0       0.3       0.1       1.2       2.1       0.1
 3 C  s               0.0       0.2       0.8       0.1       2.0       2.4
 3 C  pz             15.9       0.0       0.0       0.0       0.0       0.0
 3 C  px              0.0      11.2      12.6       0.7       4.8       3.8
 3 C  py              0.0       0.3       0.2       0.7       1.1       2.3
 3 C  dz2             0.0       0.0       0.8       0.1       0.3       0.2
 3 C  dxz             0.4       0.0       0.0       0.0       0.0       0.0
 3 C  dx2y2           0.0       0.3       1.2       0.1       1.1       0.9
 3 C  dxy             0.0       0.0       0.2       0.1       0.0       0.3
 4 C  s               0.0       0.2       0.4       0.4       0.3       4.2
 4 C  pz             16.4       0.0       0.0       0.0       0.0       0.0
 4 C  px              0.0       1.4       0.3       1.8       1.9       2.1
 4 C  py              0.0       9.6       6.5       5.2       1.8       6.5
 4 C  dz2             0.0       0.0       0.4       0.4       0.0       0.4
 4 C  dyz             0.3       0.0       0.0       0.0       0.0       0.0
 4 C  dx2y2           0.0       0.1       0.2       0.6       0.3       1.0
 4 C  dxy             0.0       0.1       0.5       0.2       0.0       1.1
 5 C  s               0.0       0.2       0.1       0.8       3.8       0.2
 5 C  pz             16.6       0.0       0.0       0.0       0.0       0.0
 5 C  px              0.0       4.4       0.0       5.5       4.3       1.1
 5 C  py              0.0       6.9       1.3       7.2       4.4       2.3
 5 C  dz2             0.0       0.0       0.1       0.8       0.5       0.0
 5 C  dxz             0.2       0.0       0.0       0.0       0.0       0.0
 5 C  dyz             0.2       0.0       0.0       0.0       0.0       0.0
[...]
     11       0.084384   0.008960   0.109562  -0.008355  -0.000943   0.057005
     12      -0.000241   0.000345   0.000314   0.000412  -0.100374   0.000297
     13      -0.000450   0.000630   0.000566   0.000895   0.259319   0.000484
     14       0.049069  -0.068760  -0.062517  -0.090371   0.001810  -0.057376
     15       0.000171   0.000385   0.000283  -0.000503   0.174848  -0.000321
     16       0.000323   0.000684   0.000439  -0.000894   0.216731  -0.000563
     17      -0.034110  -0.076705  -0.047235   0.098741   0.002865   0.057567
     18      -0.002956  -0.000311   0.002906  -0.000158   0.294709  -0.002149
     19      -0.005196  -0.000506   0.005145  -0.000478  -0.048202  -0.003696
     20       0.569277   0.058645  -0.564295   0.044812   0.001275   0.402015
     21      -0.001682   0.002284  -0.001571  -0.002429   0.108427   0.001998
     22      -0.003094   0.004280  -0.002971  -0.004329  -0.278269   0.003793
     23       0.333448  -0.463078   0.321287   0.466842  -0.002600  -0.404637
     24       0.001184   0.002685  -0.001188   0.002584  -0.187471  -0.002051
     25       0.002105   0.004744  -0.002246   0.004632  -0.233025  -0.003640
     26      -0.232356  -0.520928   0.245265  -0.511868  -0.002578   0.405881
     27       0.002957   0.000309   0.002904  -0.000207  -0.294708   0.002146
     28       0.005209   0.000509   0.005152  -0.000471   0.048212   0.003677
     29      -0.569285  -0.058648  -0.564284   0.044817  -0.001297  -0.402012
     30       0.001684  -0.002264  -0.001561  -0.002438  -0.108423  -0.002004
     31       0.003109  -0.004293  -0.002982  -0.004303   0.278269  -0.003808
     32      -0.333435   0.463078   0.321290   0.466850   0.002270   0.404643
     33      -0.001187  -0.002662  -0.001176   0.002598   0.187466   0.002050
     34      -0.002091  -0.004734  -0.002239   0.004652   0.233023   0.003626
     35       0.232355   0.520941   0.245257  -0.511859   0.002930  -0.405884
                 18         19         20         21         22         23    
      0      -0.281683  -0.061857   0.117059   0.011009  -0.006362   0.011784
      1       0.049222   0.089480   0.039244   0.068341  -0.062129   0.044357
      2      -0.001014   0.000507   0.000971   0.000666  -0.000590   0.000462
      3       0.107191   0.100953   0.005508  -0.064816  -0.010004  -0.071311
      4      -0.276399  -0.014971  -0.121572  -0.025085   0.002459  -0.028231
      5      -0.002036   0.000338  -0.001079  -0.000550  -0.000022  -0.000614
      6       0.175246  -0.074609  -0.087290   0.054002   0.053980   0.027454
      7       0.224348  -0.109782   0.046873  -0.043310  -0.046348  -0.015737
      8       0.003034  -0.001350  -0.000030  -0.000121  -0.000149  -0.000020
      9      -0.281682  -0.061857   0.117059   0.011012   0.006361  -0.011785
     10       0.049223   0.089483   0.039241   0.068339   0.062130  -0.044355
     11      -0.001013   0.000510   0.000972   0.000671   0.000592  -0.000463
     12       0.107193   0.100954   0.005511  -0.064814   0.010003   0.071311
     13      -0.276399  -0.014974  -0.121571  -0.025088  -0.002459   0.028231
     14      -0.002039   0.000332  -0.001088  -0.000548   0.000020   0.000614
     15       0.175247  -0.074611  -0.087293   0.054000  -0.053977  -0.027455
     16       0.224346  -0.109781   0.046871  -0.043312   0.046348   0.015736
     17       0.003032  -0.001339  -0.000027  -0.000123   0.000149   0.000022
     18      -0.276270  -0.011288   0.163878   0.062932  -0.068635   0.057332
     19       0.072055   0.440359   0.294551   0.397456  -0.456900   0.333054
     20      -0.000412   0.004006   0.003394   0.003975  -0.004526   0.003322
     21       0.109106   0.476322  -0.156987  -0.377024  -0.060702  -0.530805
     22      -0.274224   0.126380  -0.192087  -0.145516  -0.017110  -0.205475
     23      -0.001842   0.003601  -0.002512  -0.003230  -0.000470  -0.004546
     24       0.158159  -0.041863  -0.427233   0.311741   0.405611   0.181891
     25       0.235892  -0.146450   0.320034  -0.251253  -0.330069  -0.140344
     26       0.002474  -0.001623   0.000782  -0.000704  -0.000934  -0.000325
     27      -0.276272  -0.011294   0.163874   0.062929   0.068627  -0.057330
     28       0.072035   0.440363   0.294554   0.397450   0.456896  -0.333069
     29      -0.000415   0.003995   0.003391   0.003964   0.004531  -0.003326
     30       0.109103   0.476321  -0.156982  -0.377016   0.060692   0.530817
     31      -0.274226   0.126371  -0.192084  -0.145513   0.017106   0.205475
     32      -0.001841   0.003620  -0.002485  -0.003236   0.000474   0.004543
     33       0.158155  -0.041866  -0.427241   0.311742  -0.405613  -0.181892
     34       0.235893  -0.146449   0.320030  -0.251256   0.330067   0.140341
     35       0.002469  -0.001658   0.000774  -0.000699   0.000938   0.000322
                 24         25         26         27         28         29    
      0      -0.028093  -0.009159   0.010915   0.081070   0.088526  -0.112302
      1      -0.176573  -0.059035  -0.127193   0.039235  -0.170694  -0.214921
      2      -0.001733  -0.000595  -0.001116   0.000773  -0.001101  -0.002522
      3       0.166848  -0.055801  -0.116628  -0.053716  -0.157122   0.211115
      4       0.064668  -0.021486   0.007387  -0.088698   0.072113   0.146170
      5       0.001423  -0.000476  -0.000514  -0.001079  -0.000122   0.002392
      6      -0.139015  -0.046305   0.063550  -0.096586   0.208254  -0.101811
      7       0.112064   0.037462   0.050587   0.091588  -0.180704  -0.094496
      8       0.000309   0.000099   0.000789   0.000337  -0.000590  -0.001374
      9      -0.028099   0.009160   0.010922   0.081062  -0.088522   0.112319
     10      -0.176573   0.059034  -0.127203   0.039219   0.170671   0.214932
     11      -0.001738   0.000596  -0.001119   0.000774   0.001104   0.002526
     12       0.166845   0.055801  -0.116641  -0.053702   0.157101  -0.211124
     13       0.064675   0.021487   0.007392  -0.088686  -0.072113  -0.146188
     14       0.001420   0.000475  -0.000513  -0.001078   0.000119  -0.002392
     15      -0.139011   0.046304   0.063565  -0.096593  -0.208245   0.101792
     16       0.112070  -0.037463   0.050576   0.091579   0.180717   0.094512
     17       0.000312  -0.000100   0.000788   0.000338   0.000592   0.001371
     18       0.056692   0.063052   0.115214   0.055616   0.162446  -0.023128
     19       0.361441   0.398577   0.494203  -0.219575   0.238088   0.392397
     20       0.003565   0.003977   0.005105  -0.001750   0.002968   0.003491
     21      -0.341169   0.375968   0.383434   0.338756   0.141072  -0.412542
     22      -0.131219   0.145058   0.210964   0.048722   0.198013  -0.088934
     23      -0.002947   0.003213   0.003839   0.002173   0.002487  -0.002906
     24       0.287612   0.315276   0.003703   0.430602  -0.367382  -0.067641
     25      -0.232214  -0.254261   0.119688  -0.331031   0.282821  -0.136749
     26      -0.000597  -0.000694   0.001094  -0.000810   0.000674  -0.001544
     27       0.056675  -0.063042   0.115214   0.055621  -0.162417   0.023153
     28       0.361444  -0.398573   0.494222  -0.219539  -0.238020  -0.392442
     29       0.003596  -0.003983   0.005116  -0.001755  -0.002978  -0.003507
     30      -0.341155  -0.375976   0.383457   0.338719  -0.141017   0.412592
     31      -0.131198  -0.145054   0.210976   0.048709  -0.197977   0.088927
     32      -0.002930  -0.003210   0.003834   0.002168  -0.002481   0.002898
     33       0.287614  -0.315280   0.003671   0.430594   0.367397   0.067704
     34      -0.232198   0.254257   0.119714  -0.331031  -0.282798   0.136697
     35      -0.000611   0.000697   0.001095  -0.000816  -0.000683   0.001547
                 30         31         32         33         34         35    
      0      -0.036950  -0.047864   0.016550  -0.046422  -0.010605   0.032897
      1       0.005949   0.007950  -0.001315   0.006549   0.004438  -0.005238
      2      -0.000139  -0.000177   0.000074  -0.000182  -0.000015   0.000124
      3       0.012436   0.013108   0.011832  -0.011805   0.013955   0.013177
      4      -0.031588  -0.031448  -0.033427   0.036156  -0.030608  -0.033880
      5      -0.000230  -0.000226  -0.000250   0.000275  -0.000213  -0.000247
      6       0.019007  -0.006629   0.028322  -0.007104  -0.032602  -0.025126
      7       0.023369  -0.006168   0.035566  -0.013167  -0.039245  -0.031057
      8       0.000310  -0.000090   0.000469  -0.000156  -0.000524  -0.000412
      9      -0.036939   0.047858  -0.016557  -0.046431  -0.010599  -0.032903
     10       0.005946  -0.007948   0.001316   0.006549   0.004436   0.005238
     11      -0.000138   0.000177  -0.000074  -0.000182  -0.000015  -0.000124
     12       0.012437  -0.013112  -0.011831  -0.011800   0.013956  -0.013174
     13      -0.031592   0.031461   0.033424   0.036146  -0.030611   0.033875
     14      -0.000231   0.000227   0.000251   0.000276  -0.000215   0.000249
     15       0.019011   0.006626  -0.028316  -0.007106  -0.032608   0.025120
     16       0.023374   0.006163  -0.035560  -0.013169  -0.039253   0.031051
     17       0.000309   0.000089  -0.000467  -0.000155  -0.000522   0.000410
     18       0.440665   0.561920  -0.190869   0.523976   0.123240  -0.362958
     19      -0.069755  -0.089329   0.027959  -0.081388  -0.023976   0.057327
     20       0.001664   0.002117  -0.000741   0.001993   0.000425  -0.001370
     21      -0.146797  -0.145973  -0.147890   0.152432  -0.139695  -0.145254
     22       0.379418   0.374166   0.387937  -0.404245   0.353004   0.376078
     23       0.002772   0.002730   0.002846  -0.002976   0.002567   0.002751
     24      -0.228249   0.068504  -0.335921   0.102053   0.365012   0.279804
     25      -0.282611   0.081444  -0.417118   0.133670   0.450441   0.346608
     26      -0.003739   0.001092  -0.005516   0.001740   0.005970   0.004588
     27       0.440541  -0.561862   0.190950   0.524082   0.123170   0.363035
     28      -0.069728   0.089310  -0.027968  -0.081394  -0.023962  -0.057333
     29       0.001662  -0.002115   0.000740   0.001992   0.000425   0.001370
     30      -0.146809   0.146025   0.147873   0.152383  -0.139705   0.145222
     31       0.379462  -0.374315  -0.387906  -0.404133   0.353040  -0.376010
     32       0.002790  -0.002748  -0.002864  -0.002994   0.002583  -0.002767
     33      -0.228294  -0.068462   0.335859   0.102072   0.365077  -0.279743
     34      -0.282672  -0.081392   0.417049   0.133695   0.450532  -0.346540
     35      -0.003724  -0.001087   0.005492   0.001733   0.005946  -0.004568


-----------
IR SPECTRUM
-----------

 Mode    freq (cm**-1)   T**2         TX         TY         TZ
-------------------------------------------------------------------
   6:       435.71    0.000004  (  0.000168   0.001383  -0.001337)
   7:       436.22    0.000888  (  0.002178  -0.001023  -0.029709)
   8:       593.24    0.000000  ( -0.000012   0.000031  -0.000009)
   9:       593.58    0.000000  ( -0.000031  -0.000015  -0.000002)
  10:       645.38   88.424820  ( -0.052428  -0.092162   9.402849)
  11:       710.03    0.000000  ( -0.000047  -0.000212   0.000031)
  12:       805.50    0.000000  ( -0.000004   0.000317   0.000016)
  13:       806.48    0.000000  (  0.000319  -0.000006   0.000040)
  14:       899.45    0.002822  (  0.008490  -0.008471  -0.051753)
  15:       900.43    0.003151  (  0.006567  -0.001738  -0.055720)
  16:       914.11    0.000000  ( -0.000004   0.000006   0.000011)
  17:       936.68    0.000000  ( -0.000061  -0.000273   0.000010)
  18:       978.68    0.001309  (  0.001646   0.036138  -0.000551)
  19:       985.43    3.224174  (  1.276771   1.262419   0.018132)
  20:       986.44    2.954851  ( -1.218953   1.212016   0.004667)
  21:      1110.70    0.003985  (  0.063060   0.002884   0.000764)
  22:      1132.48    0.000000  ( -0.000107  -0.000039   0.000028)
  23:      1133.10    0.000000  (  0.000063  -0.000084  -0.000021)
  24:      1201.07    0.005015  (  0.070354   0.008069   0.000546)
  25:      1312.90    0.000000  (  0.000002   0.000008   0.000000)
  26:      1427.94    6.503160  (  1.310949   2.187203   0.026725)
  27:      1428.33    6.353565  (  2.149669  -1.316240  -0.000905)
  28:      1495.46    0.000000  (  0.000098   0.000113  -0.000041)
  29:      1496.38    0.000000  (  0.000116  -0.000105  -0.000068)
  30:      3120.17    0.377808  ( -0.527401  -0.315654  -0.004253)
  31:      3127.66    0.000001  ( -0.000637   0.000440   0.000015)
  32:      3130.49    0.000000  ( -0.000009   0.000235   0.000059)
  33:      3142.21   45.650369  ( -6.141499   2.816440  -0.005302)
  34:      3144.78   45.195639  ( -2.720649  -6.147303  -0.066115)
  35:      3153.05    0.000000  ( -0.000432  -0.000513  -0.000010)

The first frequency considered to be a vibration is 6
The total number of vibrations considered is 30


--------------------------
THERMOCHEMISTRY AT 298.15K
--------------------------

Temperature         ... 298.15 K
Pressure            ... 1.00 atm
Total Mass          ... 78.11 AMU

Throughout the following assumptions are being made:
  (1) The electronic state is orbitally nondegenerate
  (2) There are no thermally accessible electronically excited states
  (3) Hindered rotations indicated by low frequency modes are not
      treated as such but are treated as vibrations and this may
      cause some error
  (4) All equations used are the standard statistical mechanics
      equations for an ideal gas
  (5) All vibrations are strictly harmonic

freq.     435.71  E(vib)   ...       0.17 
freq.     436.22  E(vib)   ...       0.17 
freq.     593.24  E(vib)   ...       0.10 
freq.     593.58  E(vib)   ...       0.10 
freq.     645.38  E(vib)   ...       0.09 
freq.     710.03  E(vib)   ...       0.07 
freq.     805.50  E(vib)   ...       0.05 
freq.     806.48  E(vib)   ...       0.05 
freq.     899.45  E(vib)   ...       0.03 
freq.     900.43  E(vib)   ...       0.03 
freq.     914.11  E(vib)   ...       0.03 
freq.     936.68  E(vib)   ...       0.03 
freq.     978.68  E(vib)   ...       0.03 
freq.     985.43  E(vib)   ...       0.02 
freq.     986.44  E(vib)   ...       0.02 
freq.    1110.70  E(vib)   ...       0.02 
freq.    1132.48  E(vib)   ...       0.01 
freq.    1133.10  E(vib)   ...       0.01 
freq.    1201.07  E(vib)   ...       0.01 
freq.    1312.90  E(vib)   ...       0.01 
freq.    1427.94  E(vib)   ...       0.00 
freq.    1428.33  E(vib)   ...       0.00 
freq.    1495.46  E(vib)   ...       0.00 
freq.    1496.38  E(vib)   ...       0.00 
freq.    3120.17  E(vib)   ...       0.00 
freq.    3127.66  E(vib)   ...       0.00 
freq.    3130.49  E(vib)   ...       0.00 
freq.    3142.21  E(vib)   ...       0.00 
freq.    3144.78  E(vib)   ...       0.00 
freq.    3153.05  E(vib)   ...       0.00 

------------
INNER ENERGY
------------

The inner energy is: U= E(el) + E(ZPE) + E(vib) + E(rot) + E(trans)
    E(el)   - is the total energy from the electronic structure calculation
              = E(kin-el) + E(nuc-el) + E(el-el) + E(nuc-nuc)
    E(ZPE)  - the the zero temperature vibrational energy from the frequency calculation
    E(vib)  - the the finite temperature correction to E(ZPE) due to population
              of excited vibrational states
    E(rot)  - is the rotational thermal energy
    E(trans)- is the translational thermal energy

Summary of contributions to the inner energy U:
Electronic energy                ...   -232.23065223 Eh
Zero point energy                ...      0.09610244 Eh      60.31 kcal/mol
Thermal vibrational correction   ...      0.00172033 Eh       1.08 kcal/mol
Thermal rotational correction    ...      0.00141627 Eh       0.89 kcal/mol
Thermal translational correction ...      0.00141627 Eh       0.89 kcal/mol
-----------------------------------------------------------------------
Total thermal energy                   -232.12999691 Eh


Summary of corrections to the electronic energy:
(perhaps to be used in another calculation)
Total thermal correction                  0.00455288 Eh       2.86 kcal/mol
Non-thermal (ZPE) correction              0.09610244 Eh      60.31 kcal/mol
-----------------------------------------------------------------------
Total correction                          0.10065531 Eh      63.16 kcal/mol


--------
ENTHALPY
--------

The enthalpy is H = U + kB*T
                kB is Boltzmann's constant
Total free energy                 ...   -232.12999691 Eh 
Thermal Enthalpy correction       ...      0.00094421 Eh       0.59 kcal/mol
-----------------------------------------------------------------------
Total Enthalpy                    ...   -232.12905270 Eh


Note: Only C1 symmetry has been detected, increase convergence thresholds 
      if your molecule has a higher symmetry. Symmetry factor of 1.0 is   
      used for the rotational entropy correction. 
 

Note: Rotational entropy computed according to Herzberg 
Infrared and Raman Spectra, Chapter V,1, Van Nostrand Reinhold, 1945 
Point Group:  C1, Symmetry Number:   1  
Rotational constants in cm-1:     0.179992     0.179918     0.089978 

Vibrational entropy computed according to the QRRHO of S. Grimme
Chem.Eur.J. 2012 18 9955


-------
ENTROPY
-------

The entropy contributions are T*S = T*(S(el)+S(vib)+S(rot)+S(trans))
     S(el)   - electronic entropy
     S(vib)  - vibrational entropy
     S(rot)  - rotational entropy
     S(trans)- translational entropy
The entropies will be listed as mutliplied by the temperature to get
units of energy

Electronic entropy                ...      0.00000000 Eh      0.00 kcal/mol
Vibrational entropy               ...      0.00228427 Eh      1.43 kcal/mol
Rotational entropy                ...      0.01226701 Eh      7.70 kcal/mol
Translational entropy             ...      0.01852142 Eh     11.62 kcal/mol
-----------------------------------------------------------------------
Final entropy term                ...      0.03307270 Eh     20.75 kcal/mol

In case the symmetry of your molecule has not been determined correctly
or in case you have a reason to use a different symmetry number we print 
out the resulting rotational entropy values for sn=1,12 :
 --------------------------------------------------------
|  sn= 1 | S(rot)=       0.01226701 Eh      7.70 kcal/mol|
|  sn= 2 | S(rot)=       0.01161255 Eh      7.29 kcal/mol|
|  sn= 3 | S(rot)=       0.01122972 Eh      7.05 kcal/mol|
|  sn= 4 | S(rot)=       0.01095810 Eh      6.88 kcal/mol|
|  sn= 5 | S(rot)=       0.01074741 Eh      6.74 kcal/mol|
|  sn= 6 | S(rot)=       0.01057527 Eh      6.64 kcal/mol|
|  sn= 7 | S(rot)=       0.01042972 Eh      6.54 kcal/mol|
|  sn= 8 | S(rot)=       0.01030364 Eh      6.47 kcal/mol|
|  sn= 9 | S(rot)=       0.01019243 Eh      6.40 kcal/mol|
|  sn=10 | S(rot)=       0.01009295 Eh      6.33 kcal/mol|
|  sn=11 | S(rot)=       0.01000296 Eh      6.28 kcal/mol|
|  sn=12 | S(rot)=       0.00992081 Eh      6.23 kcal/mol|
 --------------------------------------------------------


-------------------
GIBBS FREE ENERGY
-------------------

The Gibbs free energy is G = H - T*S

Total enthalpy                    ...   -232.12905270 Eh 
Total entropy correction          ...     -0.03307270 Eh    -20.75 kcal/mol
-----------------------------------------------------------------------
Final Gibbs free energy         ...   -232.16212541 Eh

For completeness - the Gibbs free energy minus the electronic energy
G-E(el)                           ...      0.06852682 Eh     43.00 kcal/mol


Timings for individual modules:

Sum of individual times         ...      225.007 sec (=   3.750 min)
GTO integral calculation        ...        0.235 sec (=   0.004 min)   0.1 %
SCF iterations                  ...        2.751 sec (=   0.046 min)   1.2 %
Analytical frequency calculation...      222.022 sec (=   3.700 min)  98.7 %
                             ****ORCA TERMINATED NORMALLY****
TOTAL RUN TIME: 0 days 0 hours 3 minutes 45 seconds 480 msec
