
                                 *****************
                                 * O   R   C   A *
                                 *****************

           --- An Ab Initio, DFT and Semiempirical electronic structure package ---

                  #######################################################
                  #                        -***-                        #
                  #          Department of theory and spectroscopy      #
                  #               Directorship: Frank Neese             #
                  #        Max Planck Institute fuer Kohlenforschung    #
                  #                Kaiser Wilhelm Platz 1               #
                  #                 D-45470 Muelheim/Ruhr               #
                  #                      Germany                        #
                  #                                                     #
                  #                  All rights reserved                #
                  #                        -***-                        #
                  #######################################################


                         Program Version 4.2.0 -  RELEASE  -


 With contributions from (in alphabetic order):
   Daniel Aravena         : Magnetic Suceptibility
   Michael Atanasov       : Ab Initio Ligand Field Theory (pilot matlab implementation)
   Alexander A. Auer      : GIAO ZORA, VPT2
   Ute Becker             : Parallelization
   Giovanni Bistoni       : ED, misc. LED, open-shell LED, HFLED
   Martin Brehm           : Molecular dynamics
   Dmytro Bykov           : SCF Hessian
   Vijay G. Chilkuri      : MRCI spin determinant printing, contributions to CSF-ICE
   Dipayan Datta          : RHF DLPNO-CCSD density
   Achintya Kumar Dutta   : EOM-CC, STEOM-CC
   Dmitry Ganyushin       : Spin-Orbit,Spin-Spin,Magnetic field MRCI
   Miquel Garcia          : C-PCM Hessian, Gaussian charge scheme
   Yang Guo               : DLPNO-NEVPT2, CIM, IAO-localization
   Andreas Hansen         : Spin unrestricted coupled pair/coupled cluster methods
   Benjamin Helmich-Paris : CASSCF linear response (MC-RPA)
   Lee Huntington         : MR-EOM, pCC
   Robert Izsak           : Overlap fitted RIJCOSX, COSX-SCS-MP3, EOM
   Christian Kollmar      : KDIIS, OOCD, Brueckner-CCSD(T), CCSD density
   Simone Kossmann        : Meta GGA functionals, TD-DFT gradient, OOMP2, MP2 Hessian
   Martin Krupicka        : AUTO-CI
   Lucas Lang             : DCDCAS
   Dagmar Lenk            : GEPOL surface, SMD
   Dimitrios Liakos       : Extrapolation schemes; Compound Job, initial MDCI parallelization
   Dimitrios Manganas     : Further ROCIS development; embedding schemes
   Dimitrios Pantazis     : SARC Basis sets
   Taras Petrenko         : DFT Hessian,TD-DFT gradient, ASA, ECA, R-Raman, ABS, FL, XAS/XES, NRVS
   Peter Pinski           : DLPNO-MP2, DLPNO-MP2 Gradient
   Christoph Reimann      : Effective Core Potentials
   Marius Retegan         : Local ZFS, SOC
   Christoph Riplinger    : Optimizer, TS searches, QM/MM, DLPNO-CCSD(T), (RO)-DLPNO pert. Triples
   Tobias Risthaus        : Range-separated hybrids, TD-DFT gradient, RPA, STAB
   Michael Roemelt        : Original ROCIS implementation
   Masaaki Saitow         : Open-shell DLPNO-CCSD energy and density
   Barbara Sandhoefer     : DKH picture change effects
   Avijit Sen             : IP-ROCIS
   Kantharuban Sivalingam : CASSCF convergence, NEVPT2, FIC-MRCI
   Bernardo de Souza      : ESD, SOC TD-DFT
   Georgi Stoychev        : AutoAux, RI-MP2 NMR
   Willem Van den Heuvel  : Paramagnetic NMR
   Boris Wezisla          : Elementary symmetry handling
   Frank Wennmohs         : Technical directorship


 We gratefully acknowledge several colleagues who have allowed us to
 interface, adapt or use parts of their codes:
   Stefan Grimme, W. Hujo, H. Kruse,             : VdW corrections, initial TS optimization,
                  C. Bannwarth                     DFT functionals, gCP, sTDA/sTD-DF
   Ed Valeev, F. Pavosevic, A. Kumar             : LibInt (2-el integral package), F12 methods
   Garnet Chan, S. Sharma, J. Yang, R. Olivares  : DMRG
   Ulf Ekstrom                                   : XCFun DFT Library
   Mihaly Kallay                                 : mrcc  (arbitrary order and MRCC methods)
   Andreas Klamt, Michael Diedenhofen            : otool_cosmo (COSMO solvation model)
   Jiri Pittner, Ondrej Demel                    : Mk-CCSD
   Frank Weinhold                                : gennbo (NPA and NBO analysis)
   Christopher J. Cramer and Donald G. Truhlar   : smd solvation model
   Lars Goerigk                                  : TD-DFT with DH, B97 family of functionals
   V. Asgeirsson, H. Jonsson                     : NEB implementation
   FAccTs GmbH                                   : IRC, NEB, NEB-TS, Multilevel, MM, QM/MM, CI optimization
   S Lehtola, MJT Oliveira, MAL Marques          : LibXC Library


 Your calculation uses the libint2 library for the computation of 2-el integrals
 For citations please refer to: http://libint.valeyev.net

 Your ORCA version has been built with support for libXC version: 4.2.3
 For citations please refer to: https://tddft.org/programs/libxc/

 This ORCA versions uses:
   CBLAS   interface :  Fast vector & matrix operations
   LAPACKE interface :  Fast linear algebra routines
   SCALAPACK package :  Parallel linear algebra routines




***************************************
The coordinates will be read from file: benzene_0_1_bp86_6-31gpol.opt.xyz
***************************************


----- Orbital basis set information -----
Your calculation utilizes the basis: 6-31G*
   H-He, Li-Ne : W. J. Hehre, R. Ditchfield and J.A. Pople, J. Chem. Phys. 56, 2257 (1972).
                 Note: He and Ne are unpublished basis sets taken from the Gaussian program.
                 Note: Li and B from J. D. Dill and J. A. Pople, J. Chem. Phys. 62, 2921 (1975).
   Na - Ar     : M. M. Francl, W. J. Pietro, W. J. Hehre, J. S. Binkley, M. S. Gordon, 
                 D. J. DeFrees and J. A. Pople, J. Chem. Phys. 77, 3654 (1982).
   K - Zn      : V. A. Rassolov, J. A. Pople, M. A. Ratner, and T. L. Windus, J. Chem. Phys. 109, 1223 (1998).

----- AuxJ basis set information -----
Your calculation utilizes the AutoAux generation procedure.
  G. L. Stoychev, A. A. Auer, F. Neese, J. Chem. Theory Comput. 13, 554 (2017)

----- AuxC basis set information -----
Your calculation utilizes the AutoAux generation procedure.
  G. L. Stoychev, A. A. Auer, F. Neese, J. Chem. Theory Comput. 13, 554 (2017)

----- AuxJK basis set information -----
Your calculation utilizes the AutoAux generation procedure.
  G. L. Stoychev, A. A. Auer, F. Neese, J. Chem. Theory Comput. 13, 554 (2017)

================================================================================
                                        WARNINGS
                       Please study these warnings very carefully!
================================================================================

INFO   : Checking CIS options ...

WARNING: CIS/ROCIS methods need fully converged wavefunctions
  ===> : Setting SCFConvForced true
         You can overwrite this default with %scf ConvForced false 


INFO   : the flag for use of LIBINT has been found!

================================================================================
                                       INPUT FILE
================================================================================
NAME = benzene_0_1_bp86_6-31gpol.esd-abs.inp
|  1> !uks bp86 6-31g* tightscf esd(abs)
|  2> !autoaux
|  3> !normalprint
|  4> !pal8
|  5> 
|  6> %scf
|  7>   maxiter 500
|  8> end
|  9> 
| 10> %tddft
| 11>   nroots 10
| 12>   iroot 5
| 13> end
| 14> 
| 15> %esd
| 16>   gshessian "benzene_0_1_bp86_6-31gpol.freq.hess"
| 17>   eshessian "benzene_0_1_bp86_6-31gpol.efreq.hess"
| 18>   doht true
| 19> end
| 20> 
| 21> *xyzfile 0 1 benzene_0_1_bp86_6-31gpol.opt.xyz
| 22> 
| 23>                          ****END OF INPUT****
================================================================================

                       ****************************
                       * Single Point Calculation *
                       ****************************

---------------------------------
CARTESIAN COORDINATES (ANGSTROEM)
---------------------------------
  C      1.392214   -0.223483    0.005510
  C      0.509870   -1.315569   -0.008856
  C     -0.877466   -1.097910   -0.013889
  C     -1.382664    0.212515   -0.004507
  C     -0.500318    1.304570    0.009868
  C      0.887037    1.086920    0.014878
  H      2.474890   -0.393936    0.009536
  H      0.904025   -2.337891   -0.016204
  H     -1.565462   -1.950407   -0.025216
  H     -2.465351    0.382893   -0.008526
  H     -0.894438    2.326907    0.017327
  H      1.575013    1.939431    0.026088

----------------------------
CARTESIAN COORDINATES (A.U.)
----------------------------
  NO LB      ZA    FRAG     MASS         X           Y           Z
   0 C     6.0000    0    12.011    2.630903   -0.422322    0.010412
   1 C     6.0000    0    12.011    0.963515   -2.486065   -0.016735
   2 C     6.0000    0    12.011   -1.658171   -2.074750   -0.026245
   3 C     6.0000    0    12.011   -2.612857    0.401596   -0.008518
   4 C     6.0000    0    12.011   -0.945465    2.465281    0.018648
   5 C     6.0000    0    12.011    1.676257    2.053981    0.028115
   6 H     1.0000    0     1.008    4.676865   -0.744431    0.018021
   7 H     1.0000    0     1.008    1.708359   -4.417974   -0.030621
   8 H     1.0000    0     1.008   -2.958295   -3.685734   -0.047652
   9 H     1.0000    0     1.008   -4.658838    0.723562   -0.016111
  10 H     1.0000    0     1.008   -1.690242    4.397217    0.032744
  11 H     1.0000    0     1.008    2.976344    3.664993    0.049300

--------------------------------
INTERNAL COORDINATES (ANGSTROEM)
--------------------------------
 C      0   0   0     0.000000000000     0.00000000     0.00000000
 C      1   0   0     1.404061298289     0.00000000     0.00000000
 C      2   1   0     1.404315883431   120.02033606     0.00000000
 C      3   2   1     1.404467342813   119.99662141     0.00000000
 C      4   3   2     1.404038732659   119.98220394     0.00000000
 C      5   4   3     1.404333452301   120.02159381     0.00000000
 H      1   2   3     1.096019209465   119.98978325   179.99369558
 H      2   1   3     1.095698170579   119.98175376   179.99616356
 H      3   2   1     1.095543904457   119.98887715   179.99288275
 H      4   3   2     1.096018017388   120.02318693   179.99424205
 H      5   4   3     1.095699834445   119.98294739   180.00846882
 H      6   5   4     1.095541859173   119.98800940   179.99953148

---------------------------
INTERNAL COORDINATES (A.U.)
---------------------------
 C      0   0   0     0.000000000000     0.00000000     0.00000000
 C      1   0   0     2.653291329005     0.00000000     0.00000000
 C      2   1   0     2.653772425200   120.02033606     0.00000000
 C      3   2   1     2.654058641952   119.99662141     0.00000000
 C      4   3   2     2.653248686143   119.98220394     0.00000000
 C      5   4   3     2.653805625553   120.02159381     0.00000000
 H      1   2   3     2.071176143406   119.98978325   179.99369558
 H      2   1   3     2.070569467832   119.98175376   179.99616356
 H      3   2   1     2.070277947111   119.98887715   179.99288275
 H      4   3   2     2.071173890707   120.02318693   179.99424205
 H      5   4   3     2.070572612084   119.98294739   180.00846882
 H      6   5   4     2.070274082084   119.98800940   179.99953148

---------------------
BASIS SET INFORMATION
---------------------
There are 2 groups of distinct atoms

 Group   1 Type C   : 10s4p1d contracted to 3s2p1d pattern {631/31/1}
 Group   2 Type H   : 4s contracted to 2s pattern {31}

Atom   0C    basis set group =>   1
Atom   1C    basis set group =>   1
Atom   2C    basis set group =>   1
Atom   3C    basis set group =>   1
Atom   4C    basis set group =>   1
Atom   5C    basis set group =>   1
Atom   6H    basis set group =>   2
Atom   7H    basis set group =>   2
Atom   8H    basis set group =>   2
Atom   9H    basis set group =>   2
Atom  10H    basis set group =>   2
Atom  11H    basis set group =>   2
---------------------------------
AUXILIARY/J BASIS SET INFORMATION
---------------------------------
There are 2 groups of distinct atoms

 Group   1 Type C   : 13s11p10d2f contracted to 13s11p10d2f pattern {1111111111111/11111111111/1111111111/11}
 Group   2 Type H   : 9s2p contracted to 9s2p pattern {111111111/11}

Atom   0C    basis set group =>   1
Atom   1C    basis set group =>   1
Atom   2C    basis set group =>   1
Atom   3C    basis set group =>   1
Atom   4C    basis set group =>   1
Atom   5C    basis set group =>   1
Atom   6H    basis set group =>   2
Atom   7H    basis set group =>   2
Atom   8H    basis set group =>   2
Atom   9H    basis set group =>   2
Atom  10H    basis set group =>   2
Atom  11H    basis set group =>   2
---------------------------------
AUXILIARY/C BASIS SET INFORMATION
---------------------------------
There are 2 groups of distinct atoms

 Group   1 Type C   : 13s11p10d2f contracted to 13s11p10d2f pattern {1111111111111/11111111111/1111111111/11}
 Group   2 Type H   : 9s2p contracted to 9s2p pattern {111111111/11}

Atom   0C    basis set group =>   1
Atom   1C    basis set group =>   1
Atom   2C    basis set group =>   1
Atom   3C    basis set group =>   1
Atom   4C    basis set group =>   1
Atom   5C    basis set group =>   1
Atom   6H    basis set group =>   2
Atom   7H    basis set group =>   2
Atom   8H    basis set group =>   2
Atom   9H    basis set group =>   2
Atom  10H    basis set group =>   2
Atom  11H    basis set group =>   2
----------------------------------
AUXILIARY/JK BASIS SET INFORMATION
----------------------------------
There are 2 groups of distinct atoms

 Group   1 Type C   : 13s11p10d2f contracted to 13s11p10d2f pattern {1111111111111/11111111111/1111111111/11}
 Group   2 Type H   : 9s2p contracted to 9s2p pattern {111111111/11}

Atom   0C    basis set group =>   1
Atom   1C    basis set group =>   1
Atom   2C    basis set group =>   1
Atom   3C    basis set group =>   1
Atom   4C    basis set group =>   1
Atom   5C    basis set group =>   1
Atom   6H    basis set group =>   2
Atom   7H    basis set group =>   2
Atom   8H    basis set group =>   2
Atom   9H    basis set group =>   2
Atom  10H    basis set group =>   2
Atom  11H    basis set group =>   2

Checking for AutoStart:
The File: benzene_0_1_bp86_6-31gpol.esd-abs.gbw exists
Trying to determine its content:
     ... Fine, the file contains calculation information
     ... Fine, the calculation information was read
     ... Fine, the file contains a basis set
     ... Fine, the basis set was read
     ... Fine, the file contains a geometry
     ... Fine, the geometry was read
     ... Fine, the file contains a set of orbitals
     ... Fine, the orbitals can be read
     => possible old guess file was deleted
     => GBW file was renamed to GES file
     => GES file is set as startup file
     => Guess is set to MORead
     ... now leaving AutoStart

The geometry is being displaced to its center of mass!


           ************************************************************
           *        Program running with 8 parallel MPI-processes     *
           *              working on a common directory               *
           ************************************************************
------------------------------------------------------------------------------
                           ORCA GTO INTEGRAL CALCULATION
                           -- RI-GTO INTEGRALS CHOSEN --
------------------------------------------------------------------------------

                         BASIS SET STATISTICS AND STARTUP INFO

Gaussian basis set:
 # of primitive gaussian shells          ...  114
 # of primitive gaussian functions       ...  186
 # of contracted shells                  ...   48
 # of contracted basis functions         ...   96
 Highest angular momentum                ...    2
 Maximum contraction depth               ...    6
Auxiliary gaussian basis set:
 # of primitive gaussian shells          ...  282
 # of primitive gaussian functions       ...  750
 # of contracted shells                  ...  282
 # of contracted aux-basis functions     ...  750
 Highest angular momentum                ...    3
 Maximum contraction depth               ...    1
Ratio of auxiliary to basis functions    ...  7.81
Integral package used                  ... LIBINT
 One Electron integrals                  ... done
 Ordering auxiliary basis shells         ... done
 Integral threshhold             Thresh  ...  2.500e-11
 Primitive cut-off               TCut    ...  2.500e-12
 Pre-screening matrix                    ... done
 Shell pair data                         ... 
 Ordering of the shell pairs             ... done (   0.000 sec) 1158 of 1176 pairs
 Determination of significant pairs      ... done (   0.000 sec)
 Creation of shell pair data             ... done (   0.000 sec)
 Storage of shell pair data              ... done (   0.009 sec)
 Shell pair data done in (   0.009 sec)
 Computing two index integrals           ... done
 Cholesky decomposition of the V-matrix  ... done


Timings:
 Total evaluation time                   ...   0.168 sec (  0.003 min)
 One electron matrix time                ...   0.015 sec (  0.000 min) =  9.1%
 Schwartz matrix evaluation time         ...   0.096 sec (  0.002 min) = 56.9%
 Two index repulsion integral time       ...   0.016 sec (  0.000 min) =  9.7%
 Cholesky decomposition of V             ...   0.013 sec (  0.000 min) =  7.8%
 Three index repulsion integral time     ...   0.000 sec (  0.000 min) =  0.0%



           ************************************************************
           *        Program running with 8 parallel MPI-processes     *
           *              working on a common directory               *
           ************************************************************
-------------------------------------------------------------------------------
                                 ORCA SCF
-------------------------------------------------------------------------------

------------
SCF SETTINGS
------------
Hamiltonian:
 Density Functional     Method          .... DFT(GTOs)
 Exchange Functional    Exchange        .... B88
   X-Alpha parameter    XAlpha          ....  0.666667
   Becke's b parameter  XBeta           ....  0.004200
 Correlation Functional Correlation     .... P86
 LDA part of GGA corr.  LDAOpt          .... PW91-LDA
 Gradients option       PostSCFGGA      .... off
   Density functional embedding theory  .... OFF
 RI-approximation to the Coulomb term is turned on
   Number of auxiliary basis functions  .... 750


General Settings:
 Integral files         IntName         .... benzene_0_1_bp86_6-31gpol.esd-abs
 Hartree-Fock type      HFTyp           .... UHF
 Total Charge           Charge          ....    0
 Multiplicity           Mult            ....    1
 Number of Electrons    NEL             ....   42
 Basis Dimension        Dim             ....   96
 Nuclear Repulsion      ENuc            ....    202.0010497832 Eh

Convergence Acceleration:
 DIIS                   CNVDIIS         .... on
   Start iteration      DIISMaxIt       ....    12
   Startup error        DIISStart       ....  0.200000
   # of expansion vecs  DIISMaxEq       ....     5
   Bias factor          DIISBfac        ....   1.050
   Max. coefficient     DIISMaxC        ....  10.000
 Newton-Raphson         CNVNR           .... off
 SOSCF                  CNVSOSCF        .... off
 Level Shifting         CNVShift        .... on
   Level shift para.    LevelShift      ....    0.2500
   Turn off err/grad.   ShiftErr        ....    0.0010
 Zerner damping         CNVZerner       .... off
 Static damping         CNVDamp         .... on
   Fraction old density DampFac         ....    0.7000
   Max. Damping (<1)    DampMax         ....    0.9800
   Min. Damping (>=0)   DampMin         ....    0.0000
   Turn off err/grad.   DampErr         ....    0.1000
 Fernandez-Rico         CNVRico         .... off

SCF Procedure:
 Maximum # iterations   MaxIter         ....   500
 SCF integral mode      SCFMode         .... Direct
   Integral package                     .... LIBINT
 Reset frequency        DirectResetFreq ....    20
 Integral Threshold     Thresh          ....  2.500e-11 Eh
 Primitive CutOff       TCut            ....  2.500e-12 Eh

Convergence Tolerance:
 Convergence Check Mode ConvCheckMode   .... Total+1el-Energy
 Convergence forced     ConvForced      .... 1
 Energy Change          TolE            ....  1.000e-08 Eh
 1-El. energy change                    ....  1.000e-05 Eh
 DIIS Error             TolErr          ....  5.000e-07


Diagonalization of the overlap matrix:
Smallest eigenvalue                        ... 5.669e-04
Time for diagonalization                   ...    0.002 sec
Threshold for overlap eigenvalues          ... 1.000e-08
Number of eigenvalues below threshold      ... 0
Time for construction of square roots      ...    0.004 sec
Total time needed                          ...    0.006 sec

---------------------
INITIAL GUESS: MOREAD
---------------------
Guess MOs are being read from file: benzene_0_1_bp86_6-31gpol.esd-abs.ges
Input geometry compatible with but different from current geometry
Input basis set matches current basis set (good)
MOs were renormalized
MOs were reorthogonalized (Cholesky)
                      ------------------
                      INITIAL GUESS DONE (   0.0 sec)
                      ------------------
-------------------
DFT GRID GENERATION
-------------------

General Integration Accuracy     IntAcc      ...  4.340
Radial Grid Type                 RadialGrid  ... Gauss-Chebyshev
Angular Grid (max. acc.)         AngularGrid ... Lebedev-110
Angular grid pruning method      GridPruning ... 3 (G Style)
Weight generation scheme         WeightScheme... Becke
Basis function cutoff            BFCut       ...    1.0000e-11
Integration weight cutoff        WCut        ...    1.0000e-14
Grids for H and He will be reduced by one unit

# of grid points (after initial pruning)     ...  14700 (   0.0 sec)
# of grid points (after weights+screening)   ...  13800 (   0.0 sec)
nearest neighbour list constructed           ...    0.0 sec
Grid point re-assignment to atoms done       ...    0.0 sec
Grid point division into batches done        ...    0.0 sec
Reduced shell lists constructed in    0.0 sec

Total number of grid points                  ...    13800
Total number of batches                      ...      220
Average number of points per batch           ...       62
Average number of grid points per atom       ...     1150
Average number of shells per batch           ...    42.52 (88.58%)
Average number of basis functions per batch  ...    88.86 (92.56%)
Average number of large shells per batch     ...    38.45 (90.43%)
Average number of large basis fcns per batch ...    81.90 (92.16%)
Maximum spatial batch extension              ...   3.58,  3.80, 19.62 au
Average spatial batch extension              ...   0.24,  0.24,  0.50 au

Time for grid setup =    0.044 sec

--------------
SCF ITERATIONS
--------------
               ***  Starting incremental Fock matrix formation  ***

                         ----------------------------
                         !        ITERATION     0   !
                         ----------------------------
   Total Energy        :    -232.233702289520 Eh
   Energy Change       :    -232.233702289520 Eh
   MAX-DP              :       0.001442714711
   RMS-DP              :       0.000111918929
   Actual Damping      :       0.7000
   Actual Level Shift  :       0.2500 Eh
   Int. Num. El.       :    42.00131327 (UP=   21.00065664 DN=   21.00065664)
   Exchange            :   -33.23952745
   Correlation         :    -1.49700254


                         ----------------------------
                         !        ITERATION     1   !
                         ----------------------------
   Total Energy        :    -232.234103814127 Eh
   Energy Change       :      -0.000401524607 Eh
   MAX-DP              :       0.001181334203
   RMS-DP              :       0.000091010468
   Actual Damping      :       0.7000
   Actual Level Shift  :       0.2500 Eh
   Int. Num. El.       :    42.00132463 (UP=   21.00066231 DN=   21.00066231)
   Exchange            :   -33.24757358
   Correlation         :    -1.49700806

                               ***Turning on DIIS***

                         ----------------------------
                         !        ITERATION     2   !
                         ----------------------------
   Total Energy        :    -232.234358040767 Eh
   Energy Change       :      -0.000254226640 Eh
   MAX-DP              :       0.002627297625
   RMS-DP              :       0.000218436224
   Actual Damping      :       0.0000
   Actual Level Shift  :       0.2500 Eh
   Int. Num. El.       :    42.00133712 (UP=   21.00066856 DN=   21.00066856)
   Exchange            :   -33.25288849
   Correlation         :    -1.49696718
   DIIS-Error          :       0.004386249044


                         ----------------------------
                         !        ITERATION     3   !
                         ----------------------------
   Total Energy        :    -232.234899945905 Eh
   Energy Change       :      -0.000541905137 Eh
   MAX-DP              :       0.000669211244
   RMS-DP              :       0.000045310865
   Actual Damping      :       0.0000
   Actual Level Shift  :       0.2500 Eh
   Int. Num. El.       :    42.00137685 (UP=   21.00068842 DN=   21.00068842)
   Exchange            :   -33.26030509
   Correlation         :    -1.49670303
   DIIS-Error          :       0.001300667539
   DIIS coefficients:
      0.18755   0.81245


                         ----------------------------
                         !        ITERATION     4   !
                         ----------------------------
   Total Energy        :    -232.234914406563 Eh
   Energy Change       :      -0.000014460658 Eh
   MAX-DP              :       0.000224059917
   RMS-DP              :       0.000016527169
   Actual Damping      :       0.0000
   Actual Level Shift  :       0.0000 Eh
   Int. Num. El.       :    42.00138778 (UP=   21.00069389 DN=   21.00069389)
   Exchange            :   -33.25403159
   Correlation         :    -1.49654490
   DIIS-Error          :       0.000817118712
   DIIS coefficients:
      0.02162   0.30750   0.67089


                         ----------------------------
                         !        ITERATION     5   !
                         ----------------------------
   Total Energy        :    -232.234917975995 Eh
   Energy Change       :      -0.000003569432 Eh
   MAX-DP              :       0.000028708770
   RMS-DP              :       0.000001871140
   Actual Damping      :       0.0000
   Actual Level Shift  :       0.0000 Eh
   Int. Num. El.       :    42.00138435 (UP=   21.00069218 DN=   21.00069218)
   Exchange            :   -33.25554336
   Correlation         :    -1.49662367
   DIIS-Error          :       0.000049922217
   DIIS coefficients:
     -0.00085   0.01550   0.08370   0.90165


                         ----------------------------
                         !        ITERATION     6   !
                         ----------------------------
   Total Energy        :    -232.234917992936 Eh
   Energy Change       :      -0.000000016941 Eh
   MAX-DP              :       0.000007834756
   RMS-DP              :       0.000000456885
   Actual Damping      :       0.0000
   Actual Level Shift  :       0.0000 Eh
   Int. Num. El.       :    42.00138393 (UP=   21.00069197 DN=   21.00069197)
   Exchange            :   -33.25562523
   Correlation         :    -1.49661772
   DIIS-Error          :       0.000012664961
   DIIS coefficients:
     -0.00030   0.00021   0.01536   0.23219   0.75253


                         ----------------------------
                         !        ITERATION     7   !
                         ----------------------------
   Total Energy        :    -232.234917996743 Eh
   Energy Change       :      -0.000000003806 Eh
   MAX-DP              :       0.000003661749
   RMS-DP              :       0.000000155312
   Actual Damping      :       0.0000
   Actual Level Shift  :       0.0000 Eh
   Int. Num. El.       :    42.00138414 (UP=   21.00069207 DN=   21.00069207)
   Exchange            :   -33.25556629
   Correlation         :    -1.49661643
   DIIS-Error          :       0.000006686820
   DIIS coefficients:
      0.68365   0.00029   0.00120   0.05031   0.26455


                         ----------------------------
                         !        ITERATION     8   !
                         ----------------------------
   Total Energy        :    -232.234917997052 Eh
   Energy Change       :      -0.000000000310 Eh
   MAX-DP              :       0.000001645701
   RMS-DP              :       0.000000068410
   Actual Damping      :       0.0000
   Actual Level Shift  :       0.0000 Eh
   Int. Num. El.       :    42.00138408 (UP=   21.00069204 DN=   21.00069204)
   Exchange            :   -33.25557597
   Correlation         :    -1.49661688
   DIIS-Error          :       0.000004186309
   DIIS coefficients:
      0.44443   0.42855  -0.00099   0.01371   0.11431

                 **** Energy Check signals convergence ****

               *****************************************************
               *                     SUCCESS                       *
               *           SCF CONVERGED AFTER   9 CYCLES          *
               *****************************************************

Setting up the final grid:

General Integration Accuracy     IntAcc      ...  4.670
Radial Grid Type                 RadialGrid  ... Gauss-Chebyshev
Angular Grid (max. acc.)         AngularGrid ... Lebedev-302
Angular grid pruning method      GridPruning ... 3 (G Style)
Weight generation scheme         WeightScheme... Becke
Basis function cutoff            BFCut       ...    1.0000e-11
Integration weight cutoff        WCut        ...    1.0000e-14
Grids for H and He will be reduced by one unit

# of grid points (after initial pruning)     ...  57636 (   0.0 sec)
# of grid points (after weights+screening)   ...  53466 (   0.0 sec)
nearest neighbour list constructed           ...    0.0 sec
Grid point re-assignment to atoms done       ...    0.0 sec
Grid point division into batches done        ...    0.2 sec
Reduced shell lists constructed in    0.3 sec

Total number of grid points                  ...    53466
Total number of batches                      ...      844
Average number of points per batch           ...       63
Average number of grid points per atom       ...     4456
Average number of shells per batch           ...    41.89 (87.27%)
Average number of basis functions per batch  ...    87.98 (91.65%)
Average number of large shells per batch     ...    36.56 (87.28%)
Average number of large basis fcns per batch ...    77.33 (87.89%)
Maximum spatial batch extension              ...   3.76,  3.72, 17.18 au
Average spatial batch extension              ...   0.17,  0.17,  0.24 au

Final grid set up in    0.3 sec
Final integration                            ... done (   0.1 sec)
Change in XC energy                          ...    -0.000767612
Integrated number of electrons               ...    41.999967924
Previous integrated no of electrons          ...    42.001384095

----------------
TOTAL SCF ENERGY
----------------

Total Energy       :         -232.23568561 Eh           -6319.45428 eV

Components:
Nuclear Repulsion  :          202.00104978 Eh            5496.72801 eV
Electronic Energy  :         -434.23673539 Eh          -11816.18229 eV
One Electron Energy:         -711.51377627 Eh          -19361.27416 eV
Two Electron Energy:          277.27704088 Eh            7545.09187 eV

Virial components:
Potential Energy   :         -462.67591192 Eh          -12590.05163 eV
Kinetic Energy     :          230.44022631 Eh            6270.59735 eV
Virial Ratio       :            2.00779143


DFT components:
N(Alpha)           :       20.999983961953 electrons
N(Beta)            :       20.999983961953 electrons
N(Total)           :       41.999967923905 electrons
E(X)               :      -33.256118865991 Eh       
E(C)               :       -1.496843982639 Eh       
E(XC)              :      -34.752962848629 Eh       
DFET-embed. en.    :        0.000000000000 Eh       

---------------
SCF CONVERGENCE
---------------

  Last Energy change         ...   -3.0593e-10  Tolerance :   1.0000e-08
  Last MAX-Density change    ...    4.1204e-07  Tolerance :   1.0000e-07
  Last RMS-Density change    ...    1.6431e-08  Tolerance :   5.0000e-09
  Last DIIS Error            ...    5.2823e-07  Tolerance :   5.0000e-07

             **** THE GBW FILE WAS UPDATED (benzene_0_1_bp86_6-31gpol.esd-abs.gbw) ****
             **** DENSITY FILE WAS UPDATED (benzene_0_1_bp86_6-31gpol.esd-abs.scfp) ****
             **** ENERGY FILE WAS UPDATED (benzene_0_1_bp86_6-31gpol.esd-abs.en.tmp) ****
----------------------
UHF SPIN CONTAMINATION
----------------------

Warning: in a DFT calculation there is little theoretical justification to 
         calculate <S**2> as in Hartree-Fock theory. We will do it anyways
         but you should keep in mind that the values have only limited relevance

Expectation value of <S**2>     :    -0.000000
Ideal value S*(S+1) for S=0.0   :     0.000000
Deviation                       :    -0.000000

             **** THE GBW FILE WAS UPDATED (benzene_0_1_bp86_6-31gpol.esd-abs.gbw) ****
             **** DENSITY FILE WAS UPDATED (benzene_0_1_bp86_6-31gpol.esd-abs.scfp) ****
----------------
ORBITAL ENERGIES
----------------
                 SPIN UP ORBITALS
  NO   OCC          E(Eh)            E(eV) 
   0   1.0000      -9.911286      -269.6998 
   1   1.0000      -9.911238      -269.6985 
   2   1.0000      -9.911103      -269.6948 
   3   1.0000      -9.910952      -269.6907 
   4   1.0000      -9.910855      -269.6881 
   5   1.0000      -9.910800      -269.6866 
   6   1.0000      -0.768217       -20.9043 
   7   1.0000      -0.669066       -18.2062 
   8   1.0000      -0.668992       -18.2042 
   9   1.0000      -0.537770       -14.6335 
  10   1.0000      -0.537744       -14.6327 
  11   1.0000      -0.465513       -12.6673 
  12   1.0000      -0.409244       -11.1361 
  13   1.0000      -0.388968       -10.5844 
  14   1.0000      -0.369740       -10.0611 
  15   1.0000      -0.369596       -10.0572 
  16   1.0000      -0.319983        -8.7072 
  17   1.0000      -0.297450        -8.0940 
  18   1.0000      -0.297433        -8.0936 
  19   1.0000      -0.220749        -6.0069 
  20   1.0000      -0.220610        -6.0031 
  21   0.0000      -0.030392        -0.8270 
  22   0.0000      -0.030040        -0.8174 
  23   0.0000       0.061881         1.6839 
  24   0.0000       0.113379         3.0852 
  25   0.0000       0.115311         3.1378 
  26   0.0000       0.117119         3.1870 
  27   0.0000       0.151113         4.1120 
  28   0.0000       0.151572         4.1245 
  29   0.0000       0.160653         4.3716 
  30   0.0000       0.260695         7.0939 
  31   0.0000       0.262209         7.1351 
  32   0.0000       0.274847         7.4790 
  33   0.0000       0.275578         7.4989 
  34   0.0000       0.437970        11.9178 
  35   0.0000       0.482955        13.1419 
  36   0.0000       0.490590        13.3496 
  37   0.0000       0.507128        13.7997 
  38   0.0000       0.507247        13.8029 
  39   0.0000       0.549075        14.9411 
  40   0.0000       0.551021        14.9940 
  41   0.0000       0.556679        15.1480 
  42   0.0000       0.557255        15.1637 
  43   0.0000       0.558188        15.1891 
  44   0.0000       0.582703        15.8562 
  45   0.0000       0.584124        15.8948 
  46   0.0000       0.617135        16.7931 
  47   0.0000       0.619589        16.8599 
  48   0.0000       0.693349        18.8670 
  49   0.0000       0.782650        21.2970 
  50   0.0000       0.784585        21.3497 
  51   0.0000       0.784989        21.3606 
  52   0.0000       0.814453        22.1624 
  53   0.0000       0.815993        22.2043 
  54   0.0000       0.887839        24.1593 
  55   0.0000       0.890087        24.2205 
  56   0.0000       0.890968        24.2445 
  57   0.0000       0.899724        24.4827 
  58   0.0000       1.036966        28.2173 
  59   0.0000       1.037290        28.2261 
  60   0.0000       1.083108        29.4729 
  61   0.0000       1.083520        29.4841 
  62   0.0000       1.141952        31.0741 
  63   0.0000       1.196303        32.5531 
  64   0.0000       1.332199        36.2510 
  65   0.0000       1.371246        37.3135 
  66   0.0000       1.372249        37.3408 
  67   0.0000       1.413930        38.4750 
  68   0.0000       1.414335        38.4860 
  69   0.0000       1.444353        39.3029 
  70   0.0000       1.444640        39.3106 
  71   0.0000       1.686471        45.8912 
  72   0.0000       1.710737        46.5515 
  73   0.0000       1.773220        48.2518 
  74   0.0000       1.832753        49.8717 
  75   0.0000       1.882686        51.2305 
  76   0.0000       1.883425        51.2506 
  77   0.0000       1.976763        53.7904 
  78   0.0000       1.977136        53.8006 
  79   0.0000       2.067007        56.2461 
  80   0.0000       2.067457        56.2584 
  81   0.0000       2.067836        56.2687 
  82   0.0000       2.068238        56.2796 
  83   0.0000       2.219088        60.3844 
  84   0.0000       2.219380        60.3924 
  85   0.0000       2.230972        60.7078 
  86   0.0000       2.457272        66.8658 
  87   0.0000       2.458004        66.8857 
  88   0.0000       2.555099        69.5278 
  89   0.0000       2.600151        70.7537 
  90   0.0000       2.600446        70.7617 
  91   0.0000       2.630782        71.5872 
  92   0.0000       2.631419        71.6046 
  93   0.0000       2.675925        72.8156 
  94   0.0000       2.921846        79.5075 
  95   0.0000       3.292997        89.6070 

                 SPIN DOWN ORBITALS
  NO   OCC          E(Eh)            E(eV) 
   0   1.0000      -9.911286      -269.6998 
   1   1.0000      -9.911238      -269.6985 
   2   1.0000      -9.911103      -269.6948 
   3   1.0000      -9.910952      -269.6907 
   4   1.0000      -9.910855      -269.6881 
   5   1.0000      -9.910800      -269.6866 
   6   1.0000      -0.768217       -20.9043 
   7   1.0000      -0.669066       -18.2062 
   8   1.0000      -0.668992       -18.2042 
   9   1.0000      -0.537770       -14.6335 
  10   1.0000      -0.537744       -14.6327 
  11   1.0000      -0.465513       -12.6673 
  12   1.0000      -0.409244       -11.1361 
  13   1.0000      -0.388968       -10.5844 
  14   1.0000      -0.369740       -10.0611 
  15   1.0000      -0.369596       -10.0572 
  16   1.0000      -0.319983        -8.7072 
  17   1.0000      -0.297450        -8.0940 
  18   1.0000      -0.297433        -8.0936 
  19   1.0000      -0.220749        -6.0069 
  20   1.0000      -0.220610        -6.0031 
  21   0.0000      -0.030392        -0.8270 
  22   0.0000      -0.030040        -0.8174 
  23   0.0000       0.061881         1.6839 
  24   0.0000       0.113379         3.0852 
  25   0.0000       0.115311         3.1378 
  26   0.0000       0.117119         3.1870 
  27   0.0000       0.151113         4.1120 
  28   0.0000       0.151572         4.1245 
  29   0.0000       0.160653         4.3716 
  30   0.0000       0.260695         7.0939 
  31   0.0000       0.262209         7.1351 
  32   0.0000       0.274847         7.4790 
  33   0.0000       0.275578         7.4989 
  34   0.0000       0.437970        11.9178 
  35   0.0000       0.482955        13.1419 
  36   0.0000       0.490590        13.3496 
  37   0.0000       0.507128        13.7997 
  38   0.0000       0.507247        13.8029 
  39   0.0000       0.549075        14.9411 
  40   0.0000       0.551021        14.9940 
  41   0.0000       0.556679        15.1480 
  42   0.0000       0.557255        15.1637 
  43   0.0000       0.558188        15.1891 
  44   0.0000       0.582703        15.8562 
  45   0.0000       0.584124        15.8948 
  46   0.0000       0.617135        16.7931 
  47   0.0000       0.619589        16.8599 
  48   0.0000       0.693349        18.8670 
  49   0.0000       0.782650        21.2970 
  50   0.0000       0.784585        21.3497 
  51   0.0000       0.784989        21.3606 
  52   0.0000       0.814453        22.1624 
  53   0.0000       0.815993        22.2043 
  54   0.0000       0.887839        24.1593 
  55   0.0000       0.890087        24.2205 
  56   0.0000       0.890968        24.2445 
  57   0.0000       0.899724        24.4827 
  58   0.0000       1.036966        28.2173 
  59   0.0000       1.037290        28.2261 
  60   0.0000       1.083108        29.4729 
  61   0.0000       1.083520        29.4841 
  62   0.0000       1.141952        31.0741 
  63   0.0000       1.196303        32.5531 
  64   0.0000       1.332199        36.2510 
  65   0.0000       1.371246        37.3135 
  66   0.0000       1.372249        37.3408 
  67   0.0000       1.413930        38.4750 
  68   0.0000       1.414335        38.4860 
  69   0.0000       1.444353        39.3029 
  70   0.0000       1.444640        39.3106 
  71   0.0000       1.686471        45.8912 
  72   0.0000       1.710737        46.5515 
  73   0.0000       1.773220        48.2518 
  74   0.0000       1.832753        49.8717 
  75   0.0000       1.882686        51.2305 
  76   0.0000       1.883425        51.2506 
  77   0.0000       1.976763        53.7904 
  78   0.0000       1.977136        53.8006 
  79   0.0000       2.067007        56.2461 
  80   0.0000       2.067457        56.2584 
  81   0.0000       2.067836        56.2687 
  82   0.0000       2.068238        56.2796 
  83   0.0000       2.219088        60.3844 
  84   0.0000       2.219380        60.3924 
  85   0.0000       2.230972        60.7078 
  86   0.0000       2.457272        66.8658 
  87   0.0000       2.458004        66.8857 
  88   0.0000       2.555099        69.5278 
  89   0.0000       2.600151        70.7537 
  90   0.0000       2.600446        70.7617 
  91   0.0000       2.630782        71.5872 
  92   0.0000       2.631419        71.6046 
  93   0.0000       2.675925        72.8156 
  94   0.0000       2.921846        79.5075 
  95   0.0000       3.292997        89.6070 

                    ********************************
                    * MULLIKEN POPULATION ANALYSIS *
                    ********************************

--------------------------------------------
MULLIKEN ATOMIC CHARGES AND SPIN POPULATIONS
--------------------------------------------
   0 C :   -0.141879    0.000000
   1 C :   -0.132865    0.000000
   2 C :   -0.137134    0.000000
   3 C :   -0.141871    0.000000
   4 C :   -0.132878    0.000000
   5 C :   -0.137127    0.000000
   6 H :    0.139790    0.000000
   7 H :    0.133818    0.000000
   8 H :    0.138267    0.000000
   9 H :    0.139793    0.000000
  10 H :    0.133816    0.000000
  11 H :    0.138270    0.000000
Sum of atomic charges         :   -0.0000000
Sum of atomic spin populations:    0.0000000

-----------------------------------------------------
MULLIKEN REDUCED ORBITAL CHARGES AND SPIN POPULATIONS
-----------------------------------------------------
CHARGE
  0 C s       :     3.198294  s :     3.198294
      pz      :     0.992950  p :     2.910735
      px      :     0.983065
      py      :     0.934720
      dz2     :     0.003077  d :     0.032850
      dxz     :     0.001809
      dyz     :     0.005706
      dx2y2   :     0.012985
      dxy     :     0.009273
  1 C s       :     3.200211  s :     3.200211
      pz      :     0.992204  p :     2.899828
      px      :     0.933664
      py      :     0.973960
      dz2     :     0.003076  d :     0.032826
      dxz     :     0.005278
      dyz     :     0.002239
      dx2y2   :     0.011338
      dxy     :     0.010895
  2 C s       :     3.200411  s :     3.200411
      pz      :     0.992294  p :     2.903894
      px      :     0.950581
      py      :     0.961019
      dz2     :     0.003080  d :     0.032830
      dxz     :     0.004193
      dyz     :     0.003321
      dx2y2   :     0.009032
      dxy     :     0.013203
  3 C s       :     3.198290  s :     3.198290
      pz      :     0.992953  p :     2.910731
      px      :     0.983056
      py      :     0.934722
      dz2     :     0.003077  d :     0.032850
      dxz     :     0.001809
      dyz     :     0.005706
      dx2y2   :     0.012985
      dxy     :     0.009273
  4 C s       :     3.200217  s :     3.200217
      pz      :     0.992202  p :     2.899834
      px      :     0.933662
      py      :     0.973970
      dz2     :     0.003076  d :     0.032826
      dxz     :     0.005278
      dyz     :     0.002239
      dx2y2   :     0.011338
      dxy     :     0.010895
  5 C s       :     3.200403  s :     3.200403
      pz      :     0.992300  p :     2.903893
      px      :     0.950575
      py      :     0.961019
      dz2     :     0.003080  d :     0.032830
      dxz     :     0.004193
      dyz     :     0.003321
      dx2y2   :     0.009032
      dxy     :     0.013203
  6 H s       :     0.860210  s :     0.860210
  7 H s       :     0.866182  s :     0.866182
  8 H s       :     0.861733  s :     0.861733
  9 H s       :     0.860207  s :     0.860207
 10 H s       :     0.866184  s :     0.866184
 11 H s       :     0.861730  s :     0.861730

SPIN
  0 C s       :     0.000000  s :     0.000000
      pz      :     0.000000  p :     0.000000
      px      :     0.000000
      py      :     0.000000
      dz2     :     0.000000  d :     0.000000
      dxz     :     0.000000
      dyz     :     0.000000
      dx2y2   :     0.000000
      dxy     :     0.000000
  1 C s       :     0.000000  s :     0.000000
      pz      :     0.000000  p :     0.000000
      px      :     0.000000
      py      :     0.000000
      dz2     :     0.000000  d :     0.000000
      dxz     :     0.000000
      dyz     :     0.000000
      dx2y2   :     0.000000
      dxy     :     0.000000
  2 C s       :     0.000000  s :     0.000000
      pz      :     0.000000  p :     0.000000
      px      :     0.000000
      py      :     0.000000
      dz2     :     0.000000  d :     0.000000
      dxz     :     0.000000
      dyz     :     0.000000
      dx2y2   :     0.000000
      dxy     :     0.000000
  3 C s       :     0.000000  s :     0.000000
      pz      :     0.000000  p :     0.000000
      px      :     0.000000
      py      :     0.000000
      dz2     :     0.000000  d :     0.000000
      dxz     :     0.000000
      dyz     :     0.000000
      dx2y2   :     0.000000
      dxy     :     0.000000
  4 C s       :     0.000000  s :     0.000000
      pz      :     0.000000  p :     0.000000
      px      :     0.000000
      py      :     0.000000
      dz2     :     0.000000  d :     0.000000
      dxz     :     0.000000
      dyz     :     0.000000
      dx2y2   :     0.000000
      dxy     :     0.000000
  5 C s       :     0.000000  s :     0.000000
      pz      :     0.000000  p :     0.000000
      px      :     0.000000
      py      :     0.000000
      dz2     :     0.000000  d :     0.000000
      dxz     :     0.000000
      dyz     :     0.000000
      dx2y2   :     0.000000
      dxy     :     0.000000
  6 H s       :     0.000000  s :     0.000000
  7 H s       :     0.000000  s :     0.000000
  8 H s       :     0.000000  s :     0.000000
  9 H s       :     0.000000  s :     0.000000
 10 H s       :     0.000000  s :     0.000000
 11 H s       :     0.000000  s :     0.000000

------------------------
MULLIKEN OVERLAP CHARGES
------------------------
B(  0-C ,  1-C ) :   1.0941 B(  0-C ,  2-C ) :  -0.0603 B(  0-C ,  3-C ) :  -0.0826 
B(  0-C ,  4-C ) :  -0.0588 B(  0-C ,  5-C ) :   1.0927 B(  0-C ,  6-H ) :   0.7129 
B(  0-C ,  7-H ) :  -0.0873 B(  0-C , 11-H ) :  -0.0866 B(  1-C ,  2-C ) :   1.0939 
B(  1-C ,  3-C ) :  -0.0588 B(  1-C ,  4-C ) :  -0.0829 B(  1-C ,  5-C ) :  -0.0577 
B(  1-C ,  6-H ) :  -0.0861 B(  1-C ,  7-H ) :   0.7144 B(  1-C ,  8-H ) :  -0.0868 
B(  2-C ,  3-C ) :   1.0927 B(  2-C ,  4-C ) :  -0.0577 B(  2-C ,  5-C ) :  -0.0821 
B(  2-C ,  7-H ) :  -0.0881 B(  2-C ,  8-H ) :   0.7137 B(  2-C ,  9-H ) :  -0.0861 
B(  3-C ,  4-C ) :   1.0941 B(  3-C ,  5-C ) :  -0.0603 B(  3-C ,  8-H ) :  -0.0866 
B(  3-C ,  9-H ) :   0.7129 B(  3-C , 10-H ) :  -0.0873 B(  4-C ,  5-C ) :   1.0939 
B(  4-C ,  9-H ) :  -0.0861 B(  4-C , 10-H ) :   0.7144 B(  4-C , 11-H ) :  -0.0868 
B(  5-C ,  6-H ) :  -0.0861 B(  5-C , 10-H ) :  -0.0881 B(  5-C , 11-H ) :   0.7137 



                     *******************************
                     * LOEWDIN POPULATION ANALYSIS *
                     *******************************

-------------------------------------------
LOEWDIN ATOMIC CHARGES AND SPIN POPULATIONS
-------------------------------------------
   0 C :   -0.135032    0.000000
   1 C :   -0.132840    0.000000
   2 C :   -0.134417    0.000000
   3 C :   -0.135034    0.000000
   4 C :   -0.132837    0.000000
   5 C :   -0.134422    0.000000
   6 H :    0.134565    0.000000
   7 H :    0.133098    0.000000
   8 H :    0.134626    0.000000
   9 H :    0.134567    0.000000
  10 H :    0.133097    0.000000
  11 H :    0.134629    0.000000

----------------------------------------------------
LOEWDIN REDUCED ORBITAL CHARGES AND SPIN POPULATIONS
----------------------------------------------------
CHARGE
  0 C s       :     2.926833  s :     2.926833
      pz      :     0.984420  p :     3.127409
      px      :     1.072235
      py      :     1.070754
      dz2     :     0.005693  d :     0.080790
      dxz     :     0.003121
      dyz     :     0.012608
      dx2y2   :     0.033015
      dxy     :     0.026353
  1 C s       :     2.926797  s :     2.926797
      pz      :     0.984151  p :     3.125116
      px      :     1.069884
      py      :     1.071080
      dz2     :     0.005690  d :     0.080927
      dxz     :     0.011560
      dyz     :     0.004176
      dx2y2   :     0.030165
      dxy     :     0.029336
  2 C s       :     2.926867  s :     2.926867
      pz      :     0.984281  p :     3.126744
      px      :     1.071155
      py      :     1.071308
      dz2     :     0.005690  d :     0.080806
      dxz     :     0.008910
      dyz     :     0.006810
      dx2y2   :     0.025956
      dxy     :     0.033441
  3 C s       :     2.926834  s :     2.926834
      pz      :     0.984424  p :     3.127411
      px      :     1.072237
      py      :     1.070750
      dz2     :     0.005693  d :     0.080789
      dxz     :     0.003121
      dyz     :     0.012607
      dx2y2   :     0.033016
      dxy     :     0.026351
  4 C s       :     2.926796  s :     2.926796
      pz      :     0.984150  p :     3.125114
      px      :     1.069880
      py      :     1.071085
      dz2     :     0.005690  d :     0.080927
      dxz     :     0.011561
      dyz     :     0.004176
      dx2y2   :     0.030166
      dxy     :     0.029335
  5 C s       :     2.926863  s :     2.926863
      pz      :     0.984286  p :     3.126751
      px      :     1.071149
      py      :     1.071316
      dz2     :     0.005690  d :     0.080807
      dxz     :     0.008910
      dyz     :     0.006810
      dx2y2   :     0.025957
      dxy     :     0.033441
  6 H s       :     0.865435  s :     0.865435
  7 H s       :     0.866902  s :     0.866902
  8 H s       :     0.865374  s :     0.865374
  9 H s       :     0.865433  s :     0.865433
 10 H s       :     0.866903  s :     0.866903
 11 H s       :     0.865371  s :     0.865371

SPIN
  0 C s       :     0.000000  s :     0.000000
      pz      :     0.000000  p :     0.000000
      px      :     0.000000
      py      :     0.000000
      dz2     :     0.000000  d :     0.000000
      dxz     :     0.000000
      dyz     :     0.000000
      dx2y2   :     0.000000
      dxy     :     0.000000
  1 C s       :     0.000000  s :     0.000000
      pz      :     0.000000  p :     0.000000
      px      :     0.000000
      py      :     0.000000
      dz2     :     0.000000  d :     0.000000
      dxz     :     0.000000
      dyz     :     0.000000
      dx2y2   :     0.000000
      dxy     :     0.000000
  2 C s       :     0.000000  s :     0.000000
      pz      :     0.000000  p :     0.000000
      px      :     0.000000
      py      :     0.000000
      dz2     :     0.000000  d :     0.000000
      dxz     :     0.000000
      dyz     :     0.000000
      dx2y2   :     0.000000
      dxy     :     0.000000
  3 C s       :     0.000000  s :     0.000000
      pz      :     0.000000  p :     0.000000
      px      :     0.000000
      py      :     0.000000
      dz2     :     0.000000  d :     0.000000
      dxz     :     0.000000
      dyz     :     0.000000
      dx2y2   :     0.000000
      dxy     :     0.000000
  4 C s       :     0.000000  s :     0.000000
      pz      :     0.000000  p :     0.000000
      px      :     0.000000
      py      :     0.000000
      dz2     :     0.000000  d :     0.000000
      dxz     :     0.000000
      dyz     :     0.000000
      dx2y2   :     0.000000
      dxy     :     0.000000
  5 C s       :     0.000000  s :     0.000000
      pz      :     0.000000  p :     0.000000
      px      :     0.000000
      py      :     0.000000
      dz2     :     0.000000  d :     0.000000
      dxz     :     0.000000
      dyz     :     0.000000
      dx2y2   :     0.000000
      dxy     :     0.000000
  6 H s       :     0.000000  s :     0.000000
  7 H s       :     0.000000  s :     0.000000
  8 H s       :     0.000000  s :     0.000000
  9 H s       :     0.000000  s :     0.000000
 10 H s       :     0.000000  s :     0.000000
 11 H s       :     0.000000  s :     0.000000

---------------------------------
LOEWDIN BOND ORDERS (THRESH 0.050000)
---------------------------------
B(  0-C ,  1-C ) :   1.5033 B(  0-C ,  2-C ) :   0.0713 B(  0-C ,  3-C ) :   0.1190 
B(  0-C ,  4-C ) :   0.0714 B(  0-C ,  5-C ) :   1.5039 B(  0-C ,  6-H ) :   0.9004 
B(  1-C ,  2-C ) :   1.5040 B(  1-C ,  3-C ) :   0.0714 B(  1-C ,  4-C ) :   0.1186 
B(  1-C ,  5-C ) :   0.0714 B(  1-C ,  7-H ) :   0.9011 B(  2-C ,  3-C ) :   1.5039 
B(  2-C ,  4-C ) :   0.0714 B(  2-C ,  5-C ) :   0.1183 B(  2-C ,  8-H ) :   0.9005 
B(  3-C ,  4-C ) :   1.5034 B(  3-C ,  5-C ) :   0.0713 B(  3-C ,  9-H ) :   0.9004 
B(  4-C ,  5-C ) :   1.5040 B(  4-C , 10-H ) :   0.9011 B(  5-C , 11-H ) :   0.9005 


------------------------------------------
LOEWDIN REDUCED ORBITAL POPULATIONS PER MO
-------------------------------------------
THRESHOLD FOR PRINTING IS 0.1%
SPIN UP
                      0         1         2         3         4         5   
                  -9.91129  -9.91124  -9.91110  -9.91095  -9.91086  -9.91080
                   1.00000   1.00000   1.00000   1.00000   1.00000   1.00000
                  --------  --------  --------  --------  --------  --------
 0 C  s              29.0      41.8       0.1      20.3       0.1       8.3
 0 C  py              0.0       0.0       0.2       0.0       0.1       0.0
 1 C  s              10.5       4.9      25.4      17.5      21.5      19.7
 2 C  s               9.8       3.4      24.2      12.1      27.9      22.2
 3 C  s              29.9      40.9       0.1      20.3       0.1       8.2
 3 C  py              0.0       0.0       0.2       0.0       0.1       0.0
 4 C  s              10.8       4.7      25.5      17.5      21.7      19.3
 5 C  s               9.7       3.6      24.1      11.9      28.3      21.9

                      6         7         8         9        10        11   
                  -0.76822  -0.66907  -0.66899  -0.53777  -0.53774  -0.46551
                   1.00000   1.00000   1.00000   1.00000   1.00000   1.00000
                  --------  --------  --------  --------  --------  --------
 0 C  s              12.6      17.9       2.0       7.6       2.4       0.5
 0 C  px              2.3       0.1       0.2       3.3       0.1      11.1
 0 C  py              0.1       0.8       7.7       2.5      11.4       0.3
 0 C  dz2             0.1       0.1       0.0       0.0       0.0       0.0
 0 C  dxy             0.0       0.0       0.2       0.0       0.1       0.0
 1 C  s              12.6      11.1       8.8       7.4       2.6       0.5
 1 C  px              0.3       3.3       4.4       1.6      11.2       1.5
 1 C  py              2.1       0.7       0.6       4.4       0.1       9.9
 1 C  dz2             0.1       0.1       0.1       0.0       0.0       0.0
 1 C  dx2y2           0.0       0.0       0.1       0.0       0.1       0.0
 1 C  dxy             0.0       0.1       0.0       0.0       0.1       0.0
 2 C  s              12.6       0.8      19.1       0.0      10.0       0.5
 2 C  px              0.9       5.0       0.3       8.5       1.3       4.5
 2 C  py              1.4       3.4       0.1       5.7       1.8       6.9
 2 C  dz2             0.1       0.0       0.1       0.0       0.0       0.0
 2 C  dx2y2           0.0       0.2       0.0       0.2       0.0       0.0
 3 C  s              12.6      17.9       2.0       7.6       2.4       0.5
 3 C  px              2.3       0.1       0.2       3.3       0.1      11.1
 3 C  py              0.1       0.8       7.7       2.5      11.4       0.3
 3 C  dz2             0.1       0.1       0.0       0.0       0.0       0.0
 3 C  dxy             0.0       0.0       0.2       0.0       0.1       0.0
 4 C  s              12.6      11.1       8.8       7.4       2.6       0.5
 4 C  px              0.3       3.3       4.4       1.6      11.2       1.5
 4 C  py              2.1       0.7       0.6       4.4       0.1       9.9
 4 C  dz2             0.1       0.1       0.1       0.0       0.0       0.0
 4 C  dx2y2           0.0       0.0       0.1       0.0       0.1       0.0
 4 C  dxy             0.0       0.1       0.0       0.0       0.1       0.0
 5 C  s              12.6       0.8      19.1       0.0      10.0       0.5
 5 C  px              0.9       5.0       0.3       8.5       1.3       4.5
 5 C  py              1.4       3.4       0.1       5.7       1.8       6.9
 5 C  dz2             0.1       0.0       0.1       0.0       0.0       0.0
 5 C  dx2y2           0.0       0.2       0.0       0.2       0.0       0.0
 6 H  s               1.5       3.7       0.4       4.4       1.4       4.8
 7 H  s               1.5       2.3       1.8       4.3       1.5       4.8
 8 H  s               1.5       0.2       4.0       0.0       5.8       4.8
 9 H  s               1.5       3.7       0.4       4.4       1.4       4.8
10 H  s               1.5       2.3       1.8       4.3       1.5       4.8
11 H  s               1.5       0.2       4.0       0.0       5.8       4.8

                     12        13        14        15        16        17   
                  -0.40924  -0.38897  -0.36974  -0.36960  -0.31998  -0.29745
                   1.00000   1.00000   1.00000   1.00000   1.00000   1.00000
                  --------  --------  --------  --------  --------  --------
 0 C  s               3.3       0.0       0.4       0.0       0.0       0.0
 0 C  pz              0.0       0.0       0.0       0.0      16.5       0.0
 0 C  px              5.5       0.4      19.4       1.3       0.0       0.0
 0 C  py              0.1      16.2       0.2       1.6       0.0      12.3
 0 C  dxz             0.0       0.0       0.0       0.0       0.1       0.0
 0 C  dx2y2           0.4       0.0       0.1       0.1       0.0       0.1
 0 C  dxy             0.0       0.1       0.1       0.4       0.0       0.2
 1 C  s               3.3       0.0       0.3       0.2       0.0       0.1
 1 C  pz              0.0       0.0       0.0       0.0      16.5       0.0
 1 C  px              0.7      14.5       0.4       3.4       0.0       0.0
 1 C  py              4.9       2.2      11.3       7.3       0.0       9.9
 1 C  dx2y2           0.2       0.0       0.0       0.3       0.0       0.4
 1 C  dxy             0.2       0.0       0.3       0.0       0.0       0.6
 2 C  s               3.3       0.0       0.0       0.5       0.0       0.0
 2 C  pz              0.0       0.0       0.0       0.0      16.6       0.0
 2 C  px              2.2      10.1       0.1       9.0       0.0       0.2
 2 C  py              3.4       6.5       2.2      11.2       0.0      10.6
 2 C  dx2y2           0.0       0.1       0.4       0.1       0.0       0.0
 2 C  dxy             0.4       0.0       0.0       0.1       0.0       0.7
 3 C  s               3.3       0.0       0.4       0.0       0.0       0.0
 3 C  pz              0.0       0.0       0.0       0.0      16.5       0.0
 3 C  px              5.5       0.4      19.4       1.3       0.0       0.0
 3 C  py              0.1      16.2       0.2       1.6       0.0      12.3
 3 C  dxz             0.0       0.0       0.0       0.0       0.1       0.0
 3 C  dx2y2           0.4       0.0       0.1       0.1       0.0       0.1
 3 C  dxy             0.0       0.1       0.1       0.4       0.0       0.2
 4 C  s               3.3       0.0       0.3       0.2       0.0       0.1
 4 C  pz              0.0       0.0       0.0       0.0      16.5       0.0
 4 C  px              0.7      14.5       0.4       3.4       0.0       0.0
 4 C  py              4.9       2.2      11.3       7.3       0.0       9.9
 4 C  dx2y2           0.2       0.0       0.0       0.3       0.0       0.4
 4 C  dxy             0.2       0.0       0.3       0.0       0.0       0.6
 5 C  s               3.3       0.0       0.0       0.5       0.0       0.0
 5 C  pz              0.0       0.0       0.0       0.0      16.6       0.0
 5 C  px              2.2      10.1       0.1       9.0       0.0       0.2
 5 C  py              3.4       6.5       2.2      11.2       0.0      10.6
 5 C  dx2y2           0.0       0.1       0.4       0.1       0.0       0.0
 5 C  dxy             0.4       0.0       0.0       0.1       0.0       0.7
 6 H  s               7.3       0.0       9.0       0.8       0.0       0.4
 7 H  s               7.3       0.0       5.2       4.7       0.0       8.9
 8 H  s               7.2       0.0       0.5       9.3       0.0       5.7
 9 H  s               7.3       0.0       9.0       0.8       0.0       0.4
10 H  s               7.3       0.0       5.2       4.7       0.0       8.9
11 H  s               7.2       0.0       0.5       9.3       0.0       5.7

                     18        19        20        21        22        23   
                  -0.29743  -0.22075  -0.22061  -0.03039  -0.03004   0.06188
                   1.00000   1.00000   1.00000   0.00000   0.00000   0.00000
                  --------  --------  --------  --------  --------  --------
 0 C  s               0.1       0.0       0.0       0.0       0.0       2.6
 0 C  pz              0.0       2.1      30.6      29.1       2.5       0.0
 0 C  px              9.7       0.0       0.0       0.0       0.0       2.7
 0 C  dxz             0.0       0.0       0.0       0.3       0.0       0.0
 0 C  dyz             0.0       0.6       0.0       0.1       1.4       0.0
 0 C  dx2y2           0.9       0.0       0.0       0.0       0.0       1.1
 0 C  dxy             0.2       0.0       0.0       0.0       0.0       0.1
 1 C  s               0.0       0.0       0.0       0.0       0.0       2.8
 1 C  pz              0.0      16.5      16.2      16.5      15.1       0.0
 1 C  px             12.0       0.0       0.0       0.0       0.0       0.4
 1 C  py              0.1       0.0       0.0       0.0       0.0       2.5
 1 C  dz2             0.0       0.0       0.0       0.0       0.0       0.1
 1 C  dxz             0.0       0.3       0.2       0.4       0.9       0.0
 1 C  dyz             0.0       0.0       0.1       0.4       0.0       0.0
 1 C  dx2y2           0.3       0.0       0.0       0.0       0.0       0.6
 1 C  dxy             0.0       0.0       0.0       0.0       0.0       0.5
 2 C  s               0.0       0.0       0.0       0.0       0.0       2.6
 2 C  pz              0.0      30.4       2.3       1.8      29.8       0.0
 2 C  px             11.1       0.0       0.0       0.0       0.0       1.1
 2 C  py              0.1       0.0       0.0       0.0       0.0       1.7
 2 C  dxz             0.0       0.1       0.3       0.7       0.3       0.0
 2 C  dyz             0.0       0.0       0.3       0.7       0.0       0.0
 2 C  dx2y2           0.3       0.0       0.0       0.0       0.0       0.1
 2 C  dxy             0.3       0.0       0.0       0.0       0.0       1.1
 3 C  s               0.1       0.0       0.0       0.0       0.0       2.6
 3 C  pz              0.0       2.1      30.6      29.1       2.5       0.0
 3 C  px              9.7       0.0       0.0       0.0       0.0       2.7
 3 C  dxz             0.0       0.0       0.0       0.3       0.0       0.0
 3 C  dyz             0.0       0.6       0.0       0.1       1.4       0.0
 3 C  dx2y2           0.9       0.0       0.0       0.0       0.0       1.1
 3 C  dxy             0.2       0.0       0.0       0.0       0.0       0.1
 4 C  s               0.0       0.0       0.0       0.0       0.0       2.8
 4 C  pz              0.0      16.5      16.2      16.5      15.1       0.0
 4 C  px             12.0       0.0       0.0       0.0       0.0       0.4
 4 C  py              0.1       0.0       0.0       0.0       0.0       2.5
 4 C  dz2             0.0       0.0       0.0       0.0       0.0       0.1
 4 C  dxz             0.0       0.3       0.2       0.4       0.9       0.0
 4 C  dyz             0.0       0.0       0.1       0.4       0.0       0.0
 4 C  dx2y2           0.3       0.0       0.0       0.0       0.0       0.6
 4 C  dxy             0.0       0.0       0.0       0.0       0.0       0.5
 5 C  s               0.0       0.0       0.0       0.0       0.0       2.6
 5 C  pz              0.0      30.4       2.3       1.8      29.8       0.0
 5 C  px             11.1       0.0       0.0       0.0       0.0       1.1
 5 C  py              0.1       0.0       0.0       0.0       0.0       1.7
 5 C  dxz             0.0       0.1       0.3       0.7       0.3       0.0
 5 C  dyz             0.0       0.0       0.3       0.7       0.0       0.0
 5 C  dx2y2           0.3       0.0       0.0       0.0       0.0       0.1
 5 C  dxy             0.3       0.0       0.0       0.0       0.0       1.1
 6 H  s               9.5       0.0       0.0       0.0       0.0       9.8
 7 H  s               1.1       0.0       0.0       0.0       0.0      10.2
 8 H  s               4.3       0.0       0.0       0.0       0.0       9.7
 9 H  s               9.5       0.0       0.0       0.0       0.0       9.8
10 H  s               1.1       0.0       0.0       0.0       0.0      10.2
11 H  s               4.3       0.0       0.0       0.0       0.0       9.7

                     24        25        26        27        28        29   
                   0.11338   0.11531   0.11712   0.15111   0.15157   0.16065
                   0.00000   0.00000   0.00000   0.00000   0.00000   0.00000
                  --------  --------  --------  --------  --------  --------
 0 C  s               0.0       0.8       1.8       0.0      11.7       4.6
 0 C  pz             16.0       0.0       0.0       0.0       0.0       0.0
 0 C  px              0.0       3.0       6.9       0.1       2.8       1.5
 0 C  py              0.0       0.5       0.2       1.8       0.1       0.0
 0 C  dz2             0.0       0.0       0.0       0.0       0.8       0.3
 0 C  dxz             0.6       0.0       0.0       0.0       0.0       0.0
 0 C  dx2y2           0.0       0.4       0.3       0.1       0.4       0.1
 0 C  dxy             0.0       0.1       0.3       0.6       0.0       0.0
 1 C  s               0.0       2.7       0.0       8.5       3.1       4.6
 1 C  pz             16.1       0.0       0.0       0.0       0.0       0.0
 1 C  px              0.0       1.4       0.4       0.2       1.7       0.2
 1 C  py              0.0       8.8       0.2       2.2       0.4       1.3
 1 C  dz2             0.0       0.1       0.0       0.6       0.2       0.3
 1 C  dyz             0.5       0.0       0.0       0.0       0.0       0.0
 1 C  dx2y2           0.0       0.4       0.1       0.5       0.1       0.1
 1 C  dxy             0.0       0.3       0.2       0.0       0.6       0.1
 2 C  s               0.0       0.5       2.1       9.1       2.7       4.6
 2 C  pz             16.1       0.0       0.0       0.0       0.0       0.0
 2 C  px              0.0       0.6       3.6       0.5       1.7       0.6
 2 C  py              0.0       1.6       4.7       2.1       0.3       1.0
 2 C  dz2             0.0       0.0       0.0       0.6       0.2       0.3
 2 C  dxz             0.2       0.0       0.0       0.0       0.0       0.0
 2 C  dyz             0.4       0.0       0.0       0.0       0.0       0.0
 2 C  dx2y2           0.0       0.2       0.2       0.3       0.4       0.0
 2 C  dxy             0.0       0.2       0.5       0.2       0.2       0.1
 3 C  s               0.0       0.8       1.8       0.0      11.7       4.6
 3 C  pz             16.0       0.0       0.0       0.0       0.0       0.0
 3 C  px              0.0       3.0       6.9       0.1       2.8       1.5
 3 C  py              0.0       0.5       0.2       1.8       0.1       0.0
 3 C  dz2             0.0       0.0       0.0       0.0       0.8       0.3
 3 C  dxz             0.6       0.0       0.0       0.0       0.0       0.0
 3 C  dx2y2           0.0       0.4       0.3       0.1       0.4       0.1
 3 C  dxy             0.0       0.1       0.3       0.6       0.0       0.0
 4 C  s               0.0       2.7       0.0       8.5       3.1       4.6
 4 C  pz             16.1       0.0       0.0       0.0       0.0       0.0
 4 C  px              0.0       1.4       0.4       0.2       1.7       0.2
 4 C  py              0.0       8.8       0.2       2.2       0.4       1.3
 4 C  dz2             0.0       0.1       0.0       0.6       0.2       0.3
 4 C  dyz             0.5       0.0       0.0       0.0       0.0       0.0
 4 C  dx2y2           0.0       0.4       0.1       0.5       0.1       0.1
 4 C  dxy             0.0       0.3       0.2       0.0       0.6       0.1
 5 C  s               0.0       0.5       2.1       9.2       2.7       4.6
 5 C  pz             16.1       0.0       0.0       0.0       0.0       0.0
 5 C  px              0.0       0.6       3.6       0.5       1.7       0.6
 5 C  py              0.0       1.6       4.7       2.1       0.3       1.0
 5 C  dz2             0.0       0.0       0.0       0.6       0.2       0.3
 5 C  dxz             0.2       0.0       0.0       0.0       0.0       0.0
 5 C  dyz             0.4       0.0       0.0       0.0       0.0       0.0
 5 C  dx2y2           0.0       0.2       0.2       0.3       0.4       0.0
 5 C  dxy             0.0       0.2       0.5       0.2       0.2       0.1
 6 H  s               0.0       5.9      12.9       0.0      15.2      10.2
 7 H  s               0.0      19.0       0.1      10.7       4.0       9.9
 8 H  s               0.0       3.5      15.4      11.8       3.5      10.2
 9 H  s               0.0       5.9      12.9       0.0      15.2      10.2
10 H  s               0.0      19.0       0.1      10.7       4.0       9.9
11 H  s               0.0       3.5      15.4      11.8       3.5      10.2

                     30        31        32        33        34        35   
                   0.26070   0.26221   0.27485   0.27558   0.43797   0.48295
                   0.00000   0.00000   0.00000   0.00000   0.00000   0.00000
                  --------  --------  --------  --------  --------  --------
 0 C  s               0.9       3.7       1.2       3.7       0.0       0.0
 0 C  pz              0.0       0.0       0.0       0.0       0.0      16.7
 0 C  px              2.3       6.7       1.4       1.3       0.4       0.0
 0 C  py              5.5       2.0      10.5       4.1      14.1       0.0
 0 C  dz2             0.2       0.8       0.1       0.5       0.0       0.0
 0 C  dx2y2           0.1       0.8       0.1       3.1       0.2       0.0
 0 C  dxy             4.4       0.7       4.1       0.3       2.0       0.0
 1 C  s               4.6       0.0       1.2       3.5       0.0       0.0
 1 C  pz              0.0       0.0       0.0       0.0       0.0      16.5
 1 C  px              1.3       6.3       8.5       4.7      12.2       0.0
 1 C  py              7.8       1.1       3.1       0.8       1.9       0.0
 1 C  dz2             1.0       0.0       0.1       0.4       0.0       0.0
 1 C  dx2y2           0.3       2.4       0.3       3.4       1.1       0.0
 1 C  dxy             0.1       3.1       3.8       0.0       1.3       0.0
 2 C  s               1.4       3.3       4.8       0.0       0.0       0.0
 2 C  pz              0.0       0.0       0.0       0.0       0.0      16.7
 2 C  px              5.6       2.4       0.9       9.1       8.8       0.0
 2 C  py              2.3       6.2       1.4       5.9       5.7       0.0
 2 C  dz2             0.3       0.7       0.6       0.0       0.0       0.0
 2 C  dx2y2           4.0       1.3       0.1       4.3       2.2       0.0
 2 C  dxy             0.0       0.7       2.9       0.2       0.1       0.0
 3 C  s               0.9       3.7       1.2       3.6       0.0       0.0
 3 C  pz              0.0       0.0       0.0       0.0       0.0      16.7
 3 C  px              2.3       6.7       1.4       1.3       0.4       0.0
 3 C  py              5.5       2.1      10.5       4.1      14.1       0.0
 3 C  dz2             0.2       0.8       0.1       0.4       0.0       0.0
 3 C  dx2y2           0.1       0.8       0.1       3.1       0.2       0.0
 3 C  dxy             4.4       0.7       4.1       0.3       2.0       0.0
 4 C  s               4.6       0.0       1.2       3.5       0.0       0.0
 4 C  pz              0.0       0.0       0.0       0.0       0.0      16.5
 4 C  px              1.3       6.3       8.5       4.7      12.2       0.0
 4 C  py              7.8       1.1       3.1       0.8       1.9       0.0
 4 C  dz2             1.0       0.0       0.1       0.4       0.0       0.0
 4 C  dx2y2           0.3       2.4       0.3       3.4       1.1       0.0
 4 C  dxy             0.1       3.1       3.8       0.0       1.3       0.0
 5 C  s               1.4       3.3       4.8       0.0       0.0       0.0
 5 C  pz              0.0       0.0       0.0       0.0       0.0      16.7
 5 C  px              5.6       2.4       0.9       9.1       8.8       0.0
 5 C  py              2.3       6.2       1.4       5.9       5.7       0.0
 5 C  dz2             0.3       0.7       0.6       0.0       0.0       0.0
 5 C  dx2y2           4.0       1.3       0.1       4.3       2.2       0.0
 5 C  dxy             0.0       0.7       2.9       0.2       0.1       0.0
 6 H  s               1.0       4.1       0.8       2.4       0.0       0.0
 7 H  s               5.2       0.0       0.8       2.4       0.0       0.0
 8 H  s               1.6       3.6       3.2       0.0       0.0       0.0
 9 H  s               1.0       4.1       0.8       2.4       0.0       0.0
10 H  s               5.2       0.0       0.8       2.4       0.0       0.0
11 H  s               1.6       3.6       3.2       0.0       0.0       0.0

                     36        37        38        39        40        41   
                   0.49059   0.50713   0.50725   0.54907   0.55102   0.55668
                   0.00000   0.00000   0.00000   0.00000   0.00000   0.00000
                  --------  --------  --------  --------  --------  --------
 0 C  s               5.8       1.2       1.3       0.4       0.6       8.1
 0 C  pz              0.0       0.0       0.0       0.0       0.0       0.1
 0 C  px              3.4       4.0       4.5       2.1       1.2       0.2
 0 C  py              0.1       6.8       6.2      14.3       7.0       0.6
 0 C  dz2             2.6       0.1       0.1       1.2       1.7       1.8
 0 C  dx2y2           0.0       2.4       0.6       0.0       0.1       0.4
 0 C  dxy             0.0       0.8       2.6       0.0       0.0       0.0
 1 C  s               5.8       1.2       1.3       1.0       0.0       8.0
 1 C  px              0.4       6.2       6.4       0.2      19.4       0.1
 1 C  py              3.0       4.6       4.1       3.0       2.8       0.0
 1 C  dz2             2.6       0.1       0.1       2.1       0.0       2.7
 1 C  dx2y2           0.0       0.0       3.3       0.1       0.0       0.2
 1 C  dxy             0.0       3.2       0.0       0.1       0.0       0.1
 2 C  s               5.7       1.2       1.3       0.4       0.6       8.1
 2 C  pz              0.0       0.0       0.0       0.0       0.0       0.2
 2 C  px              1.4       6.0       5.5      13.2       0.9       0.4
 2 C  py              2.1       4.7       5.3       4.3       6.3       0.1
 2 C  dz2             2.6       0.1       0.1       1.0       2.4       1.4
 2 C  dx2y2           0.0       2.4       1.0       0.0       0.0       0.0
 2 C  dxy             0.0       0.8       2.2       0.0       0.0       0.4
 3 C  s               5.8       1.2       1.3       0.4       0.6       8.1
 3 C  pz              0.0       0.0       0.0       0.0       0.0       0.1
 3 C  px              3.4       4.0       4.5       2.1       1.2       0.2
 3 C  py              0.1       6.8       6.2      14.3       7.1       0.6
 3 C  dz2             2.6       0.1       0.1       1.2       1.7       1.8
 3 C  dx2y2           0.0       2.4       0.6       0.0       0.1       0.4
 3 C  dxy             0.0       0.8       2.6       0.0       0.0       0.0
 4 C  s               5.8       1.2       1.3       1.0       0.0       8.0
 4 C  px              0.4       6.2       6.4       0.2      19.4       0.1
 4 C  py              3.0       4.6       4.1       3.0       2.8       0.0
 4 C  dz2             2.6       0.1       0.1       2.1       0.0       2.7
 4 C  dx2y2           0.0       0.0       3.3       0.1       0.0       0.2
 4 C  dxy             0.0       3.2       0.0       0.1       0.0       0.1
 5 C  s               5.7       1.2       1.3       0.4       0.6       8.1
 5 C  pz              0.0       0.0       0.0       0.0       0.0       0.2
 5 C  px              1.4       6.0       5.5      13.2       0.9       0.4
 5 C  py              2.1       4.7       5.3       4.3       6.3       0.1
 5 C  dz2             2.6       0.1       0.1       1.0       2.4       1.4
 5 C  dx2y2           0.0       2.4       1.0       0.0       0.0       0.0
 5 C  dxy             0.0       0.8       2.2       0.0       0.0       0.4
 6 H  s               4.8       1.4       1.5       2.1       2.6       5.3
 7 H  s               4.8       1.4       1.3       2.9       0.0       7.2
 8 H  s               4.8       1.3       1.4       1.7       4.0       4.3
 9 H  s               4.8       1.4       1.5       2.1       2.6       5.3
10 H  s               4.8       1.4       1.4       2.9       0.0       7.2
11 H  s               4.8       1.3       1.4       1.7       4.0       4.3

                     42        43        44        45        46        47   
                   0.55726   0.55819   0.58270   0.58412   0.61713   0.61959
                   0.00000   0.00000   0.00000   0.00000   0.00000   0.00000
[...]
Initial guess               ....       0.007 sec  (  0.3%)
Orbital Transformation      ....       0.000 sec  (  0.0%)
Orbital Orthonormalization  ....       0.002 sec  (  0.1%)
DIIS solution               ....       0.035 sec  (  1.2%)
Grid generation             ....       0.375 sec  ( 12.8%)


           ************************************************************
           *        Program running with 8 parallel MPI-processes     *
           *              working on a common directory               *
           ************************************************************
------------------------------------------------------------------------------
                        ORCA TD-DFT/TDA CALCULATION
------------------------------------------------------------------------------

Input orbitals are from        ... benzene_0_1_bp86_6-31gpol.esd-abs.gbw
CI-vector output               ... benzene_0_1_bp86_6-31gpol.esd-abs.cis
Tamm-Dancoff approximation     ... operative
CIS-Integral strategy          ... AO-integrals
Integral handling              ... AO integral Direct
Max. core memory used          ... 512 MB
Reference state                ... UHF
Follow IRoot                   ... off
Number of operators            ... 2
Orbital ranges used for CIS calculation:
 Operator 0:  Orbitals   6... 20  to  21... 95
 Operator 1:  Orbitals   6... 20  to  21... 95
XAS localization array:
 Operator 0:  Orbitals  -1... -1
 Operator 1:  Orbitals  -1... -1
-------------------
XC-INTEGRATION GRID
-------------------

General Integration Accuracy     IntAcc      ...  3.670
Radial Grid Type                 RadialGrid  ... Gauss-Chebyshev
Angular Grid (max. acc.)         AngularGrid ... Lebedev-50
Angular grid pruning method      GridPruning ... 3 (G Style)
Weight generation scheme         WeightScheme... Becke
Basis function cutoff            BFCut       ...    1.0000e-11
Integration weight cutoff        WCut        ...    1.0000e-14
Grids for H and He will be reduced by one unit

# of grid points (after initial pruning)     ...   6852 (   0.0 sec)
# of grid points (after weights+screening)   ...   6474 (   0.0 sec)
nearest neighbour list constructed           ...    0.0 sec
Grid point re-assignment to atoms done       ...    0.0 sec
Grid point division into batches done        ...    0.0 sec
Reduced shell lists constructed in    0.0 sec

Total number of grid points                  ...     6474
Total number of batches                      ...      106
Average number of points per batch           ...       61
Average number of grid points per atom       ...      540
Average number of shells per batch           ...    41.93 (87.36%)
Average number of basis functions per batch  ...    86.73 (90.35%)
Average number of large shells per batch     ...    37.73 (89.98%)
Average number of large basis fcns per batch ...    80.67 (93.01%)
Maximum spatial batch extension              ...   3.24,  3.54, 19.26 au
Average spatial batch extension              ...   0.28,  0.28,  0.77 au


---------------
TD-DFT XC SETUP
---------------

DFT calculation                         ... on
Name of the grid file                   ... benzene_0_1_bp86_6-31gpol.esd-abs.grid_cis.tmp
RI-approximation                        ... on
Aux-basis dimension                     ... 750
Exchange functional (TD-DFT)            ... B88
   X-Alpha parameter    XAlpha (TD-DFT) ...  0.666667
   Becke's b parameter  XBeta (TD-DFT)  ...  0.004200
Correlation functional (TD-DFT)         ... P86
 LDA part of GGA corr.  LDAOpt (TD-DFT) ... PW91-LDA

Building densities             ... done
Calculating rho(r) on the grid ... done
Building xc-kernel on the grid ... done
                    *** TD-DFT CALCULATION INITIALIZED ***


------------------------
DAVIDSON-DIAGONALIZATION
------------------------

Dimension of the eigenvalue problem            ...   2250
Number of roots to be determined               ...     10
Maximum size of the expansion space            ...    100
Maximum number of iterations                   ...    100
Convergence tolerance for the residual         ...    2.500e-07
Convergence tolerance for the energies         ...    2.500e-07
Orthogonality tolerance                        ...    1.000e-14
Level Shift                                    ...    0.000e+00
Constructing the preconditioner                ... o.k.
Building the initial guess                     ... o.k.
Number of trial vectors determined             ...    100


                       ****Iteration    0****

   Memory handling for direct AO based CIS:
   Memory per vector needed      ...     1 MB
   Memory needed                 ...    16 MB
   Memory available              ...   512 MB
   Number of vectors per batch   ...   512
   Number of batches             ...     1
   Time for densities:     0.034
   Time for RI-J (Direct):     0.751
   Time for XC-Integration:     0.281
   Time for Sigma-Completion:     0.103
   Size of expansion space: 30
   Lowest Energy          :     0.156608993494
   Maximum Energy change  :     0.265810391416 (vector 9)
   Maximum residual norm  :     0.002631023518

                       ****Iteration    1****
   Time for densities:     0.012
   Time for RI-J (Direct):     0.286
   Time for XC-Integration:     0.102
   Time for Sigma-Completion:     0.037
   Size of expansion space: 40
   Lowest Energy          :     0.152241781744
   Maximum Energy change  :     0.004367211751 (vector 0)
   Maximum residual norm  :     0.000011250101

                       ****Iteration    2****
   Time for densities:     0.012
   Time for RI-J (Direct):     0.290
   Time for XC-Integration:     0.104
   Time for Sigma-Completion:     0.038
   Size of expansion space: 50
   Lowest Energy          :     0.152225736363
   Maximum Energy change  :     0.000016045381 (vector 0)
   Maximum residual norm  :     0.000000097597

      *** CONVERGENCE OF RESIDUAL NORM REACHED ***

Storing the converged CI vectors               ... benzene_0_1_bp86_6-31gpol.esd-abs.cis1

                 *** DAVIDSON DONE ***

Total time for solving the CIS problem:     3.817sec

-------------------------
TD-DFT/TDA EXCITED STATES
-------------------------

the weight of the individual excitations are printed if larger than 1.0e-02

STATE  1:  E=   0.152226 au      4.142 eV    33409.7 cm**-1
    19a ->  22a  :     0.240598 (c=  0.49050742)
    20a ->  21a  :     0.252771 (c= -0.50276386)
    19b ->  22b  :     0.240598 (c= -0.49050742)
    20b ->  21b  :     0.252771 (c=  0.50276386)

STATE  2:  E=   0.171278 au      4.661 eV    37591.2 cm**-1
    19a ->  22a  :     0.252949 (c= -0.50294002)
    20a ->  21a  :     0.240901 (c= -0.49081700)
    19b ->  22b  :     0.252949 (c=  0.50294002)
    20b ->  21b  :     0.240901 (c=  0.49081700)

STATE  3:  E=   0.171292 au      4.661 eV    37594.3 cm**-1
    19a ->  21a  :     0.250721 (c=  0.50072010)
    20a ->  22a  :     0.243128 (c= -0.49308012)
    19b ->  21b  :     0.250721 (c= -0.50072010)
    20b ->  22b  :     0.243128 (c=  0.49308012)

STATE  4:  E=   0.183445 au      4.992 eV    40261.6 cm**-1
    19a ->  21a  :     0.245980 (c=  0.49596368)
    20a ->  22a  :     0.253514 (c=  0.50350215)
    19b ->  21b  :     0.245980 (c= -0.49596368)
    20b ->  22b  :     0.253514 (c= -0.50350215)

STATE  5:  E=   0.195821 au      5.329 eV    42977.7 cm**-1
    19a ->  21a  :     0.249951 (c=  0.49995094)
    20a ->  22a  :     0.248617 (c=  0.49861481)
    19b ->  21b  :     0.249951 (c=  0.49995094)
    20b ->  22b  :     0.248617 (c=  0.49861481)

STATE  6:  E=   0.259206 au      7.053 eV    56889.2 cm**-1
    17a ->  21a  :     0.071816 (c= -0.26798483)
    17a ->  22a  :     0.125313 (c= -0.35399605)
    18a ->  21a  :     0.267063 (c=  0.51678114)
    18a ->  22a  :     0.034498 (c= -0.18573720)
    17b ->  21b  :     0.071816 (c=  0.26798483)
    17b ->  22b  :     0.125313 (c=  0.35399605)
    18b ->  21b  :     0.267063 (c= -0.51678114)
    18b ->  22b  :     0.034498 (c=  0.18573720)

STATE  7:  E=   0.260133 au      7.079 eV    57092.5 cm**-1
    17a ->  21a  :     0.359796 (c=  0.59982998)
    18a ->  21a  :     0.068679 (c=  0.26206719)
    18a ->  22a  :     0.065955 (c= -0.25681693)
    17b ->  21b  :     0.359796 (c= -0.59982998)
    18b ->  21b  :     0.068679 (c= -0.26206719)
    18b ->  22b  :     0.065955 (c=  0.25681693)

STATE  8:  E=   0.260208 au      7.081 eV    57109.1 cm**-1
    17a ->  21a  :     0.016579 (c= -0.12875836)
    17a ->  22a  :     0.289027 (c=  0.53761274)
    18a ->  21a  :     0.144617 (c=  0.38028576)
    18a ->  22a  :     0.048183 (c=  0.21950649)
    17b ->  21b  :     0.016579 (c=  0.12875836)
    17b ->  22b  :     0.289027 (c= -0.53761274)
    18b ->  21b  :     0.144617 (c= -0.38028576)
    18b ->  22b  :     0.048183 (c= -0.21950649)

STATE  9:  E=   0.260561 au      7.090 eV    57186.5 cm**-1
    17a ->  21a  :     0.050255 (c=  0.22417640)
    17a ->  22a  :     0.080183 (c= -0.28316541)
    18a ->  21a  :     0.018183 (c=  0.13484609)
    18a ->  22a  :     0.349830 (c=  0.59146468)
    17b ->  21b  :     0.050255 (c= -0.22417640)
    17b ->  22b  :     0.080183 (c=  0.28316541)
    18b ->  21b  :     0.018183 (c= -0.13484609)
    18b ->  22b  :     0.349830 (c= -0.59146468)

STATE 10:  E=   0.264356 au      7.193 eV    58019.4 cm**-1
    16a ->  21a  :     0.436831 (c= -0.66093203)
    20a ->  24a  :     0.059555 (c=  0.24403919)
    16b ->  21b  :     0.436831 (c=  0.66093203)
    20b ->  24b  :     0.059555 (c= -0.24403919)


-----------------------------
TD-DFT/TDA-EXCITATION SPECTRA
-----------------------------

Center of mass = ( -0.0000,  0.0000, -0.0000)
Calculating the Dipole integrals                  ... done
Transforming integrals                            ... done
Calculating the Linear Momentum integrals         ... done
Transforming integrals                            ... done
Calculating angular momentum integrals            ... done
Transforming integrals                            ... done

-----------------------------------------------------------------------------
         ABSORPTION SPECTRUM VIA TRANSITION ELECTRIC DIPOLE MOMENTS
-----------------------------------------------------------------------------
State   Energy    Wavelength  fosc         T2        TX        TY        TZ  
        (cm-1)      (nm)                 (au**2)    (au)      (au)      (au) 
-----------------------------------------------------------------------------
   1   33409.7    299.3   0.000000000   0.00000  -0.00000   0.00000  -0.00000
   2   37591.2    266.0   0.000000000   0.00000   0.00000  -0.00000   0.00000
   3   37594.3    266.0   0.000000000   0.00000   0.00000   0.00000   0.00000
   4   40261.6    248.4   0.000000000   0.00000   0.00000   0.00000  -0.00000
   5   42977.7    232.7   0.000001904   0.00001  -0.00226   0.00308   0.00002
   6   56889.2    175.8   0.000000000   0.00000   0.00000  -0.00000  -0.00000
   7   57092.5    175.2   0.000000000   0.00000   0.00000   0.00000  -0.00000
   8   57109.1    175.1   0.000000000   0.00000  -0.00000  -0.00000   0.00000
   9   57186.5    174.9   0.000000000   0.00000   0.00000  -0.00000  -0.00000
  10   58019.4    172.4   0.000000000   0.00000   0.00000   0.00000   0.00000

-----------------------------------------------------------------------------
         ABSORPTION SPECTRUM VIA TRANSITION VELOCITY DIPOLE MOMENTS
-----------------------------------------------------------------------------
State   Energy    Wavelength   fosc        P2         PX        PY        PZ  
        (cm-1)      (nm)                 (au**2)     (au)      (au)      (au) 
-----------------------------------------------------------------------------
   1   33409.7    299.3   0.000000000   0.00000   0.00000   0.00000   0.00000
   2   37591.2    266.0   0.000000000   0.00000  -0.00000   0.00000   0.00000
   3   37594.3    266.0   0.000000000   0.00000   0.00000  -0.00000  -0.00000
   4   40261.6    248.4   0.000000000   0.00000   0.00000  -0.00000   0.00000
   5   42977.7    232.7   0.000000769   0.00000   0.00041  -0.00024   0.00000
   6   56889.2    175.8   0.000000000   0.00000  -0.00000   0.00000   0.00000
   7   57092.5    175.2   0.000000000   0.00000  -0.00000  -0.00000   0.00000
   8   57109.1    175.1   0.000000000   0.00000  -0.00000   0.00000   0.00000
   9   57186.5    174.9   0.000000000   0.00000  -0.00000   0.00000  -0.00000
  10   58019.4    172.4   0.000000000   0.00000  -0.00000  -0.00000  -0.00000

-------------------------------------------------------------------
                             CD SPECTRUM
-------------------------------------------------------------------
State  Energy     Wavelength     R         MX        MY        MZ   
       (cm-1)       (nm)     (1e40*cgs)   (au)      (au)      (au)  
-------------------------------------------------------------------
   1   33409.7    299.3     -0.00000   0.00000   0.00000  -0.00000
   2   37591.2    266.0     -0.00000  -0.00000   0.00000   0.00000
   3   37594.3    266.0      0.00000  -0.00000   0.00000   0.00000
   4   40261.6    248.4      0.00000   0.00000   0.00000  -0.00000
   5   42977.7    232.7     -0.00001  -0.00000  -0.00001   0.00001
   6   56889.2    175.8      0.00000   0.00000  -0.00000  -0.00000
   7   57092.5    175.2     -0.00000   0.00000  -0.00000  -0.00000
   8   57109.1    175.1     -0.00000   0.00000  -0.00000   0.00000
   9   57186.5    174.9      0.00000  -0.00000  -0.00000  -0.00000
  10   58019.4    172.4     -0.00000  -0.00000  -0.00000  -0.00000

Total run time:        4.364 sec

           *** ORCA-CIS/TD-DFT FINISHED WITHOUT ERROR ***

-----------------------
CIS/TD-DFT TOTAL ENERGY
-----------------------

    E(SCF)  =   -232.235685610 Eh
    DE(CIS) =      0.195821031 Eh (Root  5)
    ----------------------------- ---------
    E(tot)  =   -232.039864578 Eh


-------------------------   --------------------
FINAL SINGLE POINT ENERGY      -232.039864578436
-------------------------   --------------------


                            ***************************************
                            *     ORCA property calculations      *
                            ***************************************

                                    ---------------------
                                    Active property flags
                                    ---------------------
   (+) Dipole Moment


------------------------------------------------------------------------------
                       ORCA ELECTRIC PROPERTIES CALCULATION
------------------------------------------------------------------------------

Dipole Moment Calculation                       ... on
Quadrupole Moment Calculation                   ... off
Polarizability Calculation                      ... off
GBWName                                         ... benzene_0_1_bp86_6-31gpol.esd-abs.gbw
Electron density file                           ... benzene_0_1_bp86_6-31gpol.esd-abs.scfp
The origin for moment calculation is the CENTER OF MASS  = (-0.000000,  0.000000 -0.000000)

-------------
DIPOLE MOMENT
-------------
                                X             Y             Z
Electronic contribution:     -0.00000       0.00003      -0.00000
Nuclear contribution   :      0.00000      -0.00004       0.00000
                        -----------------------------------------
Total Dipole Moment    :     -0.00000      -0.00001       0.00000
                        -----------------------------------------
Magnitude (a.u.)       :      0.00001
Magnitude (Debye)      :      0.00002



--------------------
Rotational spectrum 
--------------------
 
Rotational constants in cm-1:     0.187435     0.187358     0.093698 
Rotational constants in MHz :  5619.161070  5616.840053  2809.000163 

 Dipole components along the rotational axes: 
x,y,z [a.u.] :     0.000002    -0.000009     0.000001 
x,y,z [Debye]:     0.000005    -0.000022     0.000002 

 

------------------------------------------------------------------------------
                           ORCA EXCITED STATE DYNAMICS
------------------------------------------------------------------------------

Requested calculation:				...absorption
Coordinate system:				...Deloc. Internal (BAKER)
Lineshape function:				...Lorenztian
Excited state PES:				...adiabatic hessian
Apply Duschinky rotation:			...no
Use operator derivatives:			...yes
Convert derivatives between states:		...no
Use sTDA:					...no
Use same frequencies:				...no
Multiroot calculation:				...no
Single mode calculation:			...no

Ground state hessian:				benzene_0_1_bp86_6-31gpol.freq.hess
Reading ground state hessian:			...done
Excited state hessian:				benzene_0_1_bp86_6-31gpol.efreq.hess
Reading excited state hessian:			...done

As an ES Hessian was given, HessFlag is now AH!
Rotating the ground state geometry:		...done
The RMSD is:	0.058310

Writting ES hessian to:				benzene_0_1_bp86_6-31gpol.esd-abs.ES.hess
Calculating Wilson`s B Matrix:			...done
Converting to internal coordinates:		...done
Calculating rotation matrix J:			...done
Calculating displacement vector K:		...done
The sum of K*K is:				2.337464

Calculating energy of the ES at its geometry:	...done
Checking for transition data:			...done
Computing transition dipole derivatives		...

		<<Displacing mode 1 (+)>>
		<<Displacing mode 2 (+)>>
		<<Displacing mode 3 (+)>>
		<<Displacing mode 3 (-)>>
		<<Displacing mode 4 (+)>>
		<<Displacing mode 4 (-)>>
		<<Displacing mode 5 (+)>>
		<<Displacing mode 6 (+)>>
		<<Displacing mode 7 (+)>>
		<<Displacing mode 8 (+)>>
		<<Displacing mode 9 (+)>>
		<<Displacing mode 10 (+)>>
		<<Displacing mode 11 (+)>>
		<<Displacing mode 12 (+)>>
		<<Displacing mode 13 (+)>>
		<<Displacing mode 14 (+)>>
		<<Displacing mode 15 (+)>>
		<<Displacing mode 16 (+)>>
		<<Displacing mode 17 (+)>>
		<<Displacing mode 18 (+)>>
		<<Displacing mode 19 (+)>>
		<<Displacing mode 20 (+)>>
		<<Displacing mode 21 (+)>>
		<<Displacing mode 22 (+)>>
		<<Displacing mode 23 (+)>>
		<<Displacing mode 23 (-)>>
		<<Displacing mode 24 (+)>>
		<<Displacing mode 24 (-)>>
		<<Displacing mode 25 (+)>>
		<<Displacing mode 26 (+)>>
		<<Displacing mode 26 (-)>>
		<<Displacing mode 27 (+)>>
		<<Displacing mode 27 (-)>>
		<<Displacing mode 28 (+)>>
		<<Displacing mode 29 (+)>>
		<<Displacing mode 30 (+)>>

Final check on derivatives:			...done
Writting GS hessian to:				benzene_0_1_bp86_6-31gpol.esd-abs.GS.hess
Writting ES hessian to:				benzene_0_1_bp86_6-31gpol.esd-abs.ES.hess

          ***Everything is set, now computing the correlation function***

Homogeneous linewidht is:			50.00 cm-1
Number of points:				131072
Maximum time:					1592.65 fs
Spectral resolution:				3.33 cm-1
Temperature used:				298.15 K
Z value:					1.827723e-45
Cutoff for the correlation function:		1.00e-06
Adiabatic energy difference:			41850.50 cm-1
0-0 energy difference:				41467.34 cm-1
Reference transition dipole (x,y,z):		(-0.00174 0.00000),
                                    		(0.00274 0.00000),
                                    		(0.00002 0.00000) 
Calculating correlation function:		...done
Last element of the correlation function:	-0.000000,-0.000000
Computing the Fourier Transform:		...done

The absorption spectrum was saved in		benzene_0_1_bp86_6-31gpol.esd-abs.spectrum

Total run time: 0 hours 9 minutes 36 seconds

                      ****ORCA ESD FINISHED WITHOUT ERROR****

Timings for individual modules:

Sum of individual times         ...      590.034 sec (=   9.834 min)
GTO integral calculation        ...        2.142 sec (=   0.036 min)   0.4 %
SCF iterations                  ...        4.789 sec (=   0.080 min)   0.8 %
CIS module                      ...        6.240 sec (=   0.104 min)   1.1 %
ESD module                      ...      576.863 sec (=   9.614 min)  97.8 %
                             ****ORCA TERMINATED NORMALLY****
TOTAL RUN TIME: 0 days 0 hours 9 minutes 52 seconds 480 msec
