
                                 *****************
                                 * O   R   C   A *
                                 *****************

           --- An Ab Initio, DFT and Semiempirical electronic structure package ---

                  #######################################################
                  #                        -***-                        #
                  #          Department of theory and spectroscopy      #
                  #               Directorship: Frank Neese             #
                  #        Max Planck Institute fuer Kohlenforschung    #
                  #                Kaiser Wilhelm Platz 1               #
                  #                 D-45470 Muelheim/Ruhr               #
                  #                      Germany                        #
                  #                                                     #
                  #                  All rights reserved                #
                  #                        -***-                        #
                  #######################################################


                         Program Version 4.2.0 -  RELEASE  -


 With contributions from (in alphabetic order):
   Daniel Aravena         : Magnetic Suceptibility
   Michael Atanasov       : Ab Initio Ligand Field Theory (pilot matlab implementation)
   Alexander A. Auer      : GIAO ZORA, VPT2
   Ute Becker             : Parallelization
   Giovanni Bistoni       : ED, misc. LED, open-shell LED, HFLED
   Martin Brehm           : Molecular dynamics
   Dmytro Bykov           : SCF Hessian
   Vijay G. Chilkuri      : MRCI spin determinant printing, contributions to CSF-ICE
   Dipayan Datta          : RHF DLPNO-CCSD density
   Achintya Kumar Dutta   : EOM-CC, STEOM-CC
   Dmitry Ganyushin       : Spin-Orbit,Spin-Spin,Magnetic field MRCI
   Miquel Garcia          : C-PCM Hessian, Gaussian charge scheme
   Yang Guo               : DLPNO-NEVPT2, CIM, IAO-localization
   Andreas Hansen         : Spin unrestricted coupled pair/coupled cluster methods
   Benjamin Helmich-Paris : CASSCF linear response (MC-RPA)
   Lee Huntington         : MR-EOM, pCC
   Robert Izsak           : Overlap fitted RIJCOSX, COSX-SCS-MP3, EOM
   Christian Kollmar      : KDIIS, OOCD, Brueckner-CCSD(T), CCSD density
   Simone Kossmann        : Meta GGA functionals, TD-DFT gradient, OOMP2, MP2 Hessian
   Martin Krupicka        : AUTO-CI
   Lucas Lang             : DCDCAS
   Dagmar Lenk            : GEPOL surface, SMD
   Dimitrios Liakos       : Extrapolation schemes; Compound Job, initial MDCI parallelization
   Dimitrios Manganas     : Further ROCIS development; embedding schemes
   Dimitrios Pantazis     : SARC Basis sets
   Taras Petrenko         : DFT Hessian,TD-DFT gradient, ASA, ECA, R-Raman, ABS, FL, XAS/XES, NRVS
   Peter Pinski           : DLPNO-MP2, DLPNO-MP2 Gradient
   Christoph Reimann      : Effective Core Potentials
   Marius Retegan         : Local ZFS, SOC
   Christoph Riplinger    : Optimizer, TS searches, QM/MM, DLPNO-CCSD(T), (RO)-DLPNO pert. Triples
   Tobias Risthaus        : Range-separated hybrids, TD-DFT gradient, RPA, STAB
   Michael Roemelt        : Original ROCIS implementation
   Masaaki Saitow         : Open-shell DLPNO-CCSD energy and density
   Barbara Sandhoefer     : DKH picture change effects
   Avijit Sen             : IP-ROCIS
   Kantharuban Sivalingam : CASSCF convergence, NEVPT2, FIC-MRCI
   Bernardo de Souza      : ESD, SOC TD-DFT
   Georgi Stoychev        : AutoAux, RI-MP2 NMR
   Willem Van den Heuvel  : Paramagnetic NMR
   Boris Wezisla          : Elementary symmetry handling
   Frank Wennmohs         : Technical directorship


 We gratefully acknowledge several colleagues who have allowed us to
 interface, adapt or use parts of their codes:
   Stefan Grimme, W. Hujo, H. Kruse,             : VdW corrections, initial TS optimization,
                  C. Bannwarth                     DFT functionals, gCP, sTDA/sTD-DF
   Ed Valeev, F. Pavosevic, A. Kumar             : LibInt (2-el integral package), F12 methods
   Garnet Chan, S. Sharma, J. Yang, R. Olivares  : DMRG
   Ulf Ekstrom                                   : XCFun DFT Library
   Mihaly Kallay                                 : mrcc  (arbitrary order and MRCC methods)
   Andreas Klamt, Michael Diedenhofen            : otool_cosmo (COSMO solvation model)
   Jiri Pittner, Ondrej Demel                    : Mk-CCSD
   Frank Weinhold                                : gennbo (NPA and NBO analysis)
   Christopher J. Cramer and Donald G. Truhlar   : smd solvation model
   Lars Goerigk                                  : TD-DFT with DH, B97 family of functionals
   V. Asgeirsson, H. Jonsson                     : NEB implementation
   FAccTs GmbH                                   : IRC, NEB, NEB-TS, Multilevel, MM, QM/MM, CI optimization
   S Lehtola, MJT Oliveira, MAL Marques          : LibXC Library


 Your calculation uses the libint2 library for the computation of 2-el integrals
 For citations please refer to: http://libint.valeyev.net

 Your ORCA version has been built with support for libXC version: 4.2.3
 For citations please refer to: https://tddft.org/programs/libxc/

 This ORCA versions uses:
   CBLAS   interface :  Fast vector & matrix operations
   LAPACKE interface :  Fast linear algebra routines
   SCALAPACK package :  Parallel linear algebra routines




***************************************
The coordinates will be read from file: benzene_0_1_bp86_6-31gpol.opt.xyz
***************************************


----- Orbital basis set information -----
Your calculation utilizes the basis: 6-31G*
   H-He, Li-Ne : W. J. Hehre, R. Ditchfield and J.A. Pople, J. Chem. Phys. 56, 2257 (1972).
                 Note: He and Ne are unpublished basis sets taken from the Gaussian program.
                 Note: Li and B from J. D. Dill and J. A. Pople, J. Chem. Phys. 62, 2921 (1975).
   Na - Ar     : M. M. Francl, W. J. Pietro, W. J. Hehre, J. S. Binkley, M. S. Gordon, 
                 D. J. DeFrees and J. A. Pople, J. Chem. Phys. 77, 3654 (1982).
   K - Zn      : V. A. Rassolov, J. A. Pople, M. A. Ratner, and T. L. Windus, J. Chem. Phys. 109, 1223 (1998).

----- AuxJ basis set information -----
Your calculation utilizes the AutoAux generation procedure.
  G. L. Stoychev, A. A. Auer, F. Neese, J. Chem. Theory Comput. 13, 554 (2017)

----- AuxC basis set information -----
Your calculation utilizes the AutoAux generation procedure.
  G. L. Stoychev, A. A. Auer, F. Neese, J. Chem. Theory Comput. 13, 554 (2017)

----- AuxJK basis set information -----
Your calculation utilizes the AutoAux generation procedure.
  G. L. Stoychev, A. A. Auer, F. Neese, J. Chem. Theory Comput. 13, 554 (2017)

================================================================================
                                        WARNINGS
                       Please study these warnings very carefully!
================================================================================


INFO   : the flag for use of LIBINT has been found!

================================================================================
                                       INPUT FILE
================================================================================
NAME = benzene_0_1_bp86_6-31gpol.freq.inp
|  1> !uks bp86 6-31g* tightscf anfreq
|  2> !autoaux
|  3> !normalprint
|  4> 
|  5> %scf
|  6>   maxiter 500
|  7> end
|  8> 
|  9> *xyzfile 0 1 benzene_0_1_bp86_6-31gpol.opt.xyz
| 10> 
| 11>                          ****END OF INPUT****
================================================================================

                       ****************************
                       * Single Point Calculation *
                       ****************************

---------------------------------
CARTESIAN COORDINATES (ANGSTROEM)
---------------------------------
  C      1.392214   -0.223483    0.005510
  C      0.509870   -1.315569   -0.008856
  C     -0.877466   -1.097910   -0.013889
  C     -1.382664    0.212515   -0.004507
  C     -0.500318    1.304570    0.009868
  C      0.887037    1.086920    0.014878
  H      2.474890   -0.393936    0.009536
  H      0.904025   -2.337891   -0.016204
  H     -1.565462   -1.950407   -0.025216
  H     -2.465351    0.382893   -0.008526
  H     -0.894438    2.326907    0.017327
  H      1.575013    1.939431    0.026088

----------------------------
CARTESIAN COORDINATES (A.U.)
----------------------------
  NO LB      ZA    FRAG     MASS         X           Y           Z
   0 C     6.0000    0    12.011    2.630903   -0.422322    0.010412
   1 C     6.0000    0    12.011    0.963515   -2.486065   -0.016735
   2 C     6.0000    0    12.011   -1.658171   -2.074750   -0.026245
   3 C     6.0000    0    12.011   -2.612857    0.401596   -0.008518
   4 C     6.0000    0    12.011   -0.945465    2.465281    0.018648
   5 C     6.0000    0    12.011    1.676257    2.053981    0.028115
   6 H     1.0000    0     1.008    4.676865   -0.744431    0.018021
   7 H     1.0000    0     1.008    1.708359   -4.417974   -0.030621
   8 H     1.0000    0     1.008   -2.958295   -3.685734   -0.047652
   9 H     1.0000    0     1.008   -4.658838    0.723562   -0.016111
  10 H     1.0000    0     1.008   -1.690242    4.397217    0.032744
  11 H     1.0000    0     1.008    2.976344    3.664993    0.049300

--------------------------------
INTERNAL COORDINATES (ANGSTROEM)
--------------------------------
 C      0   0   0     0.000000000000     0.00000000     0.00000000
 C      1   0   0     1.404061298289     0.00000000     0.00000000
 C      2   1   0     1.404315883431   120.02033606     0.00000000
 C      3   2   1     1.404467342813   119.99662141     0.00000000
 C      4   3   2     1.404038732659   119.98220394     0.00000000
 C      5   4   3     1.404333452301   120.02159381     0.00000000
 H      1   2   3     1.096019209465   119.98978325   179.99369558
 H      2   1   3     1.095698170579   119.98175376   179.99616356
 H      3   2   1     1.095543904457   119.98887715   179.99288275
 H      4   3   2     1.096018017388   120.02318693   179.99424205
 H      5   4   3     1.095699834445   119.98294739   180.00846882
 H      6   5   4     1.095541859173   119.98800940   179.99953148

---------------------------
INTERNAL COORDINATES (A.U.)
---------------------------
 C      0   0   0     0.000000000000     0.00000000     0.00000000
 C      1   0   0     2.653291329005     0.00000000     0.00000000
 C      2   1   0     2.653772425200   120.02033606     0.00000000
 C      3   2   1     2.654058641952   119.99662141     0.00000000
 C      4   3   2     2.653248686143   119.98220394     0.00000000
 C      5   4   3     2.653805625553   120.02159381     0.00000000
 H      1   2   3     2.071176143406   119.98978325   179.99369558
 H      2   1   3     2.070569467832   119.98175376   179.99616356
 H      3   2   1     2.070277947111   119.98887715   179.99288275
 H      4   3   2     2.071173890707   120.02318693   179.99424205
 H      5   4   3     2.070572612084   119.98294739   180.00846882
 H      6   5   4     2.070274082084   119.98800940   179.99953148

---------------------
BASIS SET INFORMATION
---------------------
There are 2 groups of distinct atoms

 Group   1 Type C   : 10s4p1d contracted to 3s2p1d pattern {631/31/1}
 Group   2 Type H   : 4s contracted to 2s pattern {31}

Atom   0C    basis set group =>   1
Atom   1C    basis set group =>   1
Atom   2C    basis set group =>   1
Atom   3C    basis set group =>   1
Atom   4C    basis set group =>   1
Atom   5C    basis set group =>   1
Atom   6H    basis set group =>   2
Atom   7H    basis set group =>   2
Atom   8H    basis set group =>   2
Atom   9H    basis set group =>   2
Atom  10H    basis set group =>   2
Atom  11H    basis set group =>   2
---------------------------------
AUXILIARY/J BASIS SET INFORMATION
---------------------------------
There are 2 groups of distinct atoms

 Group   1 Type C   : 13s11p10d2f contracted to 13s11p10d2f pattern {1111111111111/11111111111/1111111111/11}
 Group   2 Type H   : 9s2p contracted to 9s2p pattern {111111111/11}

Atom   0C    basis set group =>   1
Atom   1C    basis set group =>   1
Atom   2C    basis set group =>   1
Atom   3C    basis set group =>   1
Atom   4C    basis set group =>   1
Atom   5C    basis set group =>   1
Atom   6H    basis set group =>   2
Atom   7H    basis set group =>   2
Atom   8H    basis set group =>   2
Atom   9H    basis set group =>   2
Atom  10H    basis set group =>   2
Atom  11H    basis set group =>   2
---------------------------------
AUXILIARY/C BASIS SET INFORMATION
---------------------------------
There are 2 groups of distinct atoms

 Group   1 Type C   : 13s11p10d2f contracted to 13s11p10d2f pattern {1111111111111/11111111111/1111111111/11}
 Group   2 Type H   : 9s2p contracted to 9s2p pattern {111111111/11}

Atom   0C    basis set group =>   1
Atom   1C    basis set group =>   1
Atom   2C    basis set group =>   1
Atom   3C    basis set group =>   1
Atom   4C    basis set group =>   1
Atom   5C    basis set group =>   1
Atom   6H    basis set group =>   2
Atom   7H    basis set group =>   2
Atom   8H    basis set group =>   2
Atom   9H    basis set group =>   2
Atom  10H    basis set group =>   2
Atom  11H    basis set group =>   2
----------------------------------
AUXILIARY/JK BASIS SET INFORMATION
----------------------------------
There are 2 groups of distinct atoms

 Group   1 Type C   : 13s11p10d2f contracted to 13s11p10d2f pattern {1111111111111/11111111111/1111111111/11}
 Group   2 Type H   : 9s2p contracted to 9s2p pattern {111111111/11}

Atom   0C    basis set group =>   1
Atom   1C    basis set group =>   1
Atom   2C    basis set group =>   1
Atom   3C    basis set group =>   1
Atom   4C    basis set group =>   1
Atom   5C    basis set group =>   1
Atom   6H    basis set group =>   2
Atom   7H    basis set group =>   2
Atom   8H    basis set group =>   2
Atom   9H    basis set group =>   2
Atom  10H    basis set group =>   2
Atom  11H    basis set group =>   2
------------------------------------------------------------------------------
                           ORCA GTO INTEGRAL CALCULATION
                           -- RI-GTO INTEGRALS CHOSEN --
------------------------------------------------------------------------------

                         BASIS SET STATISTICS AND STARTUP INFO

Gaussian basis set:
 # of primitive gaussian shells          ...  114
 # of primitive gaussian functions       ...  186
 # of contracted shells                  ...   48
 # of contracted basis functions         ...   96
 Highest angular momentum                ...    2
 Maximum contraction depth               ...    6
Auxiliary gaussian basis set:
 # of primitive gaussian shells          ...  282
 # of primitive gaussian functions       ...  750
 # of contracted shells                  ...  282
 # of contracted aux-basis functions     ...  750
 Highest angular momentum                ...    3
 Maximum contraction depth               ...    1
Ratio of auxiliary to basis functions    ...  7.81
Integral package used                  ... LIBINT
 One Electron integrals                  ... done
 Ordering auxiliary basis shells         ... done
 Integral threshhold             Thresh  ...  2.500e-11
 Primitive cut-off               TCut    ...  2.500e-12
 Pre-screening matrix                    ... done
 Shell pair data                         ... 
 Ordering of the shell pairs             ... done (   0.000 sec) 1158 of 1176 pairs
 Determination of significant pairs      ... done (   0.000 sec)
 Creation of shell pair data             ... done (   0.000 sec)
 Storage of shell pair data              ... done (   0.003 sec)
 Shell pair data done in (   0.003 sec)
 Computing two index integrals           ... done
 Cholesky decomposition of the V-matrix  ... done


Timings:
 Total evaluation time                   ...   0.318 sec (  0.005 min)
 One electron matrix time                ...   0.015 sec (  0.000 min) =  4.8%
 Schwartz matrix evaluation time         ...   0.117 sec (  0.002 min) = 36.7%
 Two index repulsion integral time       ...   0.021 sec (  0.000 min) =  6.5%
 Cholesky decomposition of V             ...   0.141 sec (  0.002 min) = 44.4%
 Three index repulsion integral time     ...   0.000 sec (  0.000 min) =  0.0%

-------------------------------------------------------------------------------
                                 ORCA SCF
-------------------------------------------------------------------------------

------------
SCF SETTINGS
------------
Hamiltonian:
 Density Functional     Method          .... DFT(GTOs)
 Exchange Functional    Exchange        .... B88
   X-Alpha parameter    XAlpha          ....  0.666667
   Becke's b parameter  XBeta           ....  0.004200
 Correlation Functional Correlation     .... P86
 LDA part of GGA corr.  LDAOpt          .... PW91-LDA
 Gradients option       PostSCFGGA      .... off
   Density functional embedding theory  .... OFF
 RI-approximation to the Coulomb term is turned on
   Number of auxiliary basis functions  .... 750


General Settings:
 Integral files         IntName         .... benzene_0_1_bp86_6-31gpol.freq
 Hartree-Fock type      HFTyp           .... UHF
 Total Charge           Charge          ....    0
 Multiplicity           Mult            ....    1
 Number of Electrons    NEL             ....   42
 Basis Dimension        Dim             ....   96
 Nuclear Repulsion      ENuc            ....    202.0010497832 Eh

Convergence Acceleration:
 DIIS                   CNVDIIS         .... on
   Start iteration      DIISMaxIt       ....    12
   Startup error        DIISStart       ....  0.200000
   # of expansion vecs  DIISMaxEq       ....     5
   Bias factor          DIISBfac        ....   1.050
   Max. coefficient     DIISMaxC        ....  10.000
 Newton-Raphson         CNVNR           .... off
 SOSCF                  CNVSOSCF        .... off
 Level Shifting         CNVShift        .... on
   Level shift para.    LevelShift      ....    0.2500
   Turn off err/grad.   ShiftErr        ....    0.0010
 Zerner damping         CNVZerner       .... off
 Static damping         CNVDamp         .... on
   Fraction old density DampFac         ....    0.7000
   Max. Damping (<1)    DampMax         ....    0.9800
   Min. Damping (>=0)   DampMin         ....    0.0000
   Turn off err/grad.   DampErr         ....    0.1000
 Fernandez-Rico         CNVRico         .... off

SCF Procedure:
 Maximum # iterations   MaxIter         ....   500
 SCF integral mode      SCFMode         .... Direct
   Integral package                     .... LIBINT
 Reset frequency        DirectResetFreq ....    20
 Integral Threshold     Thresh          ....  2.500e-11 Eh
 Primitive CutOff       TCut            ....  2.500e-12 Eh

Convergence Tolerance:
 Convergence Check Mode ConvCheckMode   .... Total+1el-Energy
 Convergence forced     ConvForced      .... 0
 Energy Change          TolE            ....  1.000e-08 Eh
 1-El. energy change                    ....  1.000e-05 Eh
 DIIS Error             TolErr          ....  5.000e-07


Diagonalization of the overlap matrix:
Smallest eigenvalue                        ... 5.669e-04
Time for diagonalization                   ...    0.109 sec
Threshold for overlap eigenvalues          ... 1.000e-08
Number of eigenvalues below threshold      ... 0
Time for construction of square roots      ...    0.004 sec
Total time needed                          ...    0.113 sec

-------------------
DFT GRID GENERATION
-------------------

General Integration Accuracy     IntAcc      ...  4.340
Radial Grid Type                 RadialGrid  ... Gauss-Chebyshev
Angular Grid (max. acc.)         AngularGrid ... Lebedev-110
Angular grid pruning method      GridPruning ... 3 (G Style)
Weight generation scheme         WeightScheme... Becke
Basis function cutoff            BFCut       ...    1.0000e-11
Integration weight cutoff        WCut        ...    1.0000e-14
Grids for H and He will be reduced by one unit

# of grid points (after initial pruning)     ...  14700 (   0.0 sec)
# of grid points (after weights+screening)   ...  13800 (   0.0 sec)
nearest neighbour list constructed           ...    0.0 sec
Grid point re-assignment to atoms done       ...    0.0 sec
Grid point division into batches done        ...    0.0 sec
Reduced shell lists constructed in    0.1 sec

Total number of grid points                  ...    13800
Total number of batches                      ...      220
Average number of points per batch           ...       62
Average number of grid points per atom       ...     1150
Average number of shells per batch           ...    38.16 (79.51%)
Average number of basis functions per batch  ...    78.90 (82.19%)
Average number of large shells per batch     ...    32.00 (83.85%)
Average number of large basis fcns per batch ...    66.52 (84.31%)
Maximum spatial batch extension              ...  17.76, 20.03, 25.63 au
Average spatial batch extension              ...   3.66,  3.98,  5.48 au

Time for grid setup =    0.123 sec

------------------------------
INITIAL GUESS: MODEL POTENTIAL
------------------------------
Loading Hartree-Fock densities                     ... done
Calculating cut-offs                               ... done
Setting up the integral package                    ... done
Initializing the effective Hamiltonian             ... done
Starting the Coulomb interaction                   ... done (   0.0 sec)
Reading the grid                                   ... done
Mapping shells                                     ... done
Starting the XC term evaluation                    ... done (   0.1 sec)
  promolecular density results
     # of electrons  =     42.002365905
     EX              =    -32.579223465
     EC              =     -1.488217671
     EX+EC           =    -34.067441136
Transforming the Hamiltonian                       ... done (   0.0 sec)
Diagonalizing the Hamiltonian                      ... done (   0.0 sec)
Back transforming the eigenvectors                 ... done (   0.0 sec)
Now organizing SCF variables                       ... done
                      ------------------
                      INITIAL GUESS DONE (   0.4 sec)
                      ------------------
--------------
SCF ITERATIONS
--------------
               ***  Starting incremental Fock matrix formation  ***

                         ----------------------------
                         !        ITERATION     0   !
                         ----------------------------
   Total Energy        :    -232.117306004919 Eh
   Energy Change       :    -232.117306004919 Eh
   MAX-DP              :       0.020383211304
   RMS-DP              :       0.001355674613
   Actual Damping      :       0.7000
   Actual Level Shift  :       0.2500 Eh
   Int. Num. El.       :    42.00028849 (UP=   21.00014425 DN=   21.00014425)
   Exchange            :   -33.69887651
   Correlation         :    -1.50750378


                         ----------------------------
                         !        ITERATION     1   !
                         ----------------------------
   Total Energy        :    -232.173350480170 Eh
   Energy Change       :      -0.056044475251 Eh
   MAX-DP              :       0.016991715958
   RMS-DP              :       0.001034537791
   Actual Damping      :       0.7000
   Actual Level Shift  :       0.2500 Eh
   Int. Num. El.       :    42.00075135 (UP=   21.00037567 DN=   21.00037567)
   Exchange            :   -33.49259215
   Correlation         :    -1.50149210

                               ***Turning on DIIS***

                         ----------------------------
                         !        ITERATION     2   !
                         ----------------------------
   Total Energy        :    -232.195027851389 Eh
   Energy Change       :      -0.021677371219 Eh
   MAX-DP              :       0.029272450091
   RMS-DP              :       0.001698625003
   Actual Damping      :       0.0000
   Actual Level Shift  :       0.2500 Eh
   Int. Num. El.       :    42.00107932 (UP=   21.00053966 DN=   21.00053966)
   Exchange            :   -33.35036154
   Correlation         :    -1.49747350
   DIIS-Error          :       0.020673338534


                         ----------------------------
                         !        ITERATION     3   !
                         ----------------------------
   Total Energy        :    -232.224269379786 Eh
   Energy Change       :      -0.029241528398 Eh
   MAX-DP              :       0.012039617337
   RMS-DP              :       0.000735768816
   Actual Damping      :       0.0000
   Actual Level Shift  :       0.2500 Eh
   Int. Num. El.       :    42.00162751 (UP=   21.00081375 DN=   21.00081375)
   Exchange            :   -33.13899544
   Correlation         :    -1.49273073
   DIIS-Error          :       0.039989657085
   DIIS coefficients:
      0.63653   0.36347


                         ----------------------------
                         !        ITERATION     4   !
                         ----------------------------
   Total Energy        :    -232.234320048755 Eh
   Energy Change       :      -0.010050668968 Eh
   MAX-DP              :       0.004871559214
   RMS-DP              :       0.000233774254
   Actual Damping      :       0.0000
   Actual Level Shift  :       0.2500 Eh
   Int. Num. El.       :    42.00145411 (UP=   21.00072706 DN=   21.00072706)
   Exchange            :   -33.22497822
   Correlation         :    -1.49569555
   DIIS-Error          :       0.008403754935
   DIIS coefficients:
      0.20307  -0.04415   0.84108


                         ----------------------------
                         !        ITERATION     5   !
                         ----------------------------
   Total Energy        :    -232.234895606084 Eh
   Energy Change       :      -0.000575557329 Eh
   MAX-DP              :       0.001465462742
   RMS-DP              :       0.000072716106
   Actual Damping      :       0.0000
   Actual Level Shift  :       0.2500 Eh
   Int. Num. El.       :    42.00139130 (UP=   21.00069565 DN=   21.00069565)
   Exchange            :   -33.25013411
   Correlation         :    -1.49641947
   DIIS-Error          :       0.001460210117
   DIIS coefficients:
      0.02292  -0.00928  -0.04967   1.03603


                         ----------------------------
                         !        ITERATION     6   !
                         ----------------------------
   Total Energy        :    -232.234916729377 Eh
   Energy Change       :      -0.000021123293 Eh
   MAX-DP              :       0.000598001377
   RMS-DP              :       0.000033205307
   Actual Damping      :       0.0000
   Actual Level Shift  :       0.0000 Eh
   Int. Num. El.       :    42.00138359 (UP=   21.00069180 DN=   21.00069180)
   Exchange            :   -33.25457013
   Correlation         :    -1.49656289
   DIIS-Error          :       0.000316338816
   DIIS coefficients:
     -0.00108   0.00068  -0.01562  -0.14808   1.16410


                         ----------------------------
                         !        ITERATION     7   !
                         ----------------------------
   Total Energy        :    -232.234917993301 Eh
   Energy Change       :      -0.000001263924 Eh
   MAX-DP              :       0.000030300033
   RMS-DP              :       0.000001553280
   Actual Damping      :       0.0000
   Actual Level Shift  :       0.0000 Eh
   Int. Num. El.       :    42.00138380 (UP=   21.00069190 DN=   21.00069190)
   Exchange            :   -33.25568820
   Correlation         :    -1.49662199
   DIIS-Error          :       0.000058254879
   DIIS coefficients:
      0.93963   0.00074   0.00088  -0.01215   0.07090


                         ----------------------------
                         !        ITERATION     8   !
                         ----------------------------
   Total Energy        :    -232.234917999886 Eh
   Energy Change       :      -0.000000006585 Eh
   MAX-DP              :       0.000018937023
   RMS-DP              :       0.000000794708
   Actual Damping      :       0.0000
   Actual Level Shift  :       0.0000 Eh
   Int. Num. El.       :    42.00138399 (UP=   21.00069200 DN=   21.00069200)
   Exchange            :   -33.25558373
   Correlation         :    -1.49661690
   DIIS-Error          :       0.000040939069
   DIIS coefficients:
      0.54509   0.45303   0.00151   0.00692  -0.00654


                         ----------------------------
                         !        ITERATION     9   !
                         ----------------------------
   Total Energy        :    -232.234918002234 Eh
   Energy Change       :      -0.000000002349 Eh
   MAX-DP              :       0.000004085852
   RMS-DP              :       0.000000240907
   Actual Damping      :       0.0000
   Actual Level Shift  :       0.0000 Eh
   Int. Num. El.       :    42.00138410 (UP=   21.00069205 DN=   21.00069205)
   Exchange            :   -33.25557417
   Correlation         :    -1.49661637
   DIIS-Error          :       0.000010921644
   DIIS coefficients:
      0.13035   0.23351   0.62802   0.00109   0.00704


                         ----------------------------
                         !        ITERATION    10   !
                         ----------------------------
   Total Energy        :    -232.234918005169 Eh
   Energy Change       :      -0.000000002935 Eh
   MAX-DP              :       0.000000715228
   RMS-DP              :       0.000000050520
   Actual Damping      :       0.0000
   Actual Level Shift  :       0.0000 Eh
   Int. Num. El.       :    42.00138409 (UP=   21.00069205 DN=   21.00069205)
   Exchange            :   -33.25557933
   Correlation         :    -1.49661705
   DIIS-Error          :       0.000001605677
   DIIS coefficients:
     -0.00211   0.04202   0.18637   0.77420  -0.00048

                 **** Energy Check signals convergence ****

               *****************************************************
               *                     SUCCESS                       *
               *           SCF CONVERGED AFTER  11 CYCLES          *
               *****************************************************

Setting up the final grid:

General Integration Accuracy     IntAcc      ...  4.670
Radial Grid Type                 RadialGrid  ... Gauss-Chebyshev
Angular Grid (max. acc.)         AngularGrid ... Lebedev-302
Angular grid pruning method      GridPruning ... 3 (G Style)
Weight generation scheme         WeightScheme... Becke
Basis function cutoff            BFCut       ...    1.0000e-11
Integration weight cutoff        WCut        ...    1.0000e-14
Grids for H and He will be reduced by one unit

# of grid points (after initial pruning)     ...  57636 (   0.0 sec)
# of grid points (after weights+screening)   ...  53466 (   0.1 sec)
nearest neighbour list constructed           ...    0.0 sec
Grid point re-assignment to atoms done       ...    0.0 sec
Grid point division into batches done        ...    0.2 sec
Reduced shell lists constructed in    0.5 sec

Total number of grid points                  ...    53466
Total number of batches                      ...      844
Average number of points per batch           ...       63
Average number of grid points per atom       ...     4456
Average number of shells per batch           ...    34.92 (72.76%)
Average number of basis functions per batch  ...    72.12 (75.12%)
Average number of large shells per batch     ...    28.57 (81.81%)
Average number of large basis fcns per batch ...    59.03 (81.86%)
Maximum spatial batch extension              ...  18.17, 18.07, 23.19 au
Average spatial batch extension              ...   2.55,  2.65,  3.00 au

Final grid set up in    0.6 sec
Final integration                            ... done (   0.7 sec)
Change in XC energy                          ...    -0.000767613
Integrated number of electrons               ...    41.999967924
Previous integrated no of electrons          ...    42.001384093

----------------
TOTAL SCF ENERGY
----------------

Total Energy       :         -232.23568562 Eh           -6319.45428 eV

Components:
Nuclear Repulsion  :          202.00104978 Eh            5496.72801 eV
Electronic Energy  :         -434.23673540 Eh          -11816.18229 eV
One Electron Energy:         -711.51377052 Eh          -19361.27400 eV
Two Electron Energy:          277.27703512 Eh            7545.09171 eV

Virial components:
Potential Energy   :         -462.67591035 Eh          -12590.05159 eV
Kinetic Energy     :          230.44022473 Eh            6270.59731 eV
Virial Ratio       :            2.00779144


DFT components:
N(Alpha)           :       20.999983961952 electrons
N(Beta)            :       20.999983961952 electrons
N(Total)           :       41.999967923903 electrons
E(X)               :      -33.256118556627 Eh       
E(C)               :       -1.496843973689 Eh       
E(XC)              :      -34.752962530316 Eh       
DFET-embed. en.    :        0.000000000000 Eh       

---------------
SCF CONVERGENCE
---------------

  Last Energy change         ...    1.5722e-09  Tolerance :   1.0000e-08
  Last MAX-Density change    ...    6.6803e-07  Tolerance :   1.0000e-07
  Last RMS-Density change    ...    3.2104e-08  Tolerance :   5.0000e-09
  Last DIIS Error            ...    1.2088e-06  Tolerance :   5.0000e-07

             **** THE GBW FILE WAS UPDATED (benzene_0_1_bp86_6-31gpol.freq.gbw) ****
             **** DENSITY FILE WAS UPDATED (benzene_0_1_bp86_6-31gpol.freq.scfp) ****
             **** ENERGY FILE WAS UPDATED (benzene_0_1_bp86_6-31gpol.freq.en.tmp) ****
----------------------
UHF SPIN CONTAMINATION
----------------------

Warning: in a DFT calculation there is little theoretical justification to 
         calculate <S**2> as in Hartree-Fock theory. We will do it anyways
         but you should keep in mind that the values have only limited relevance

Expectation value of <S**2>     :    -0.000000
Ideal value S*(S+1) for S=0.0   :     0.000000
Deviation                       :    -0.000000

             **** THE GBW FILE WAS UPDATED (benzene_0_1_bp86_6-31gpol.freq.gbw) ****
             **** DENSITY FILE WAS UPDATED (benzene_0_1_bp86_6-31gpol.freq.scfp) ****
----------------
ORBITAL ENERGIES
----------------
                 SPIN UP ORBITALS
  NO   OCC          E(Eh)            E(eV) 
   0   1.0000      -9.911286      -269.6998 
   1   1.0000      -9.911238      -269.6985 
   2   1.0000      -9.911103      -269.6948 
   3   1.0000      -9.910952      -269.6907 
   4   1.0000      -9.910855      -269.6881 
   5   1.0000      -9.910800      -269.6866 
   6   1.0000      -0.768217       -20.9043 
   7   1.0000      -0.669066       -18.2062 
   8   1.0000      -0.668992       -18.2042 
   9   1.0000      -0.537770       -14.6335 
  10   1.0000      -0.537743       -14.6327 
  11   1.0000      -0.465513       -12.6673 
  12   1.0000      -0.409244       -11.1361 
  13   1.0000      -0.388968       -10.5844 
  14   1.0000      -0.369740       -10.0611 
  15   1.0000      -0.369596       -10.0572 
  16   1.0000      -0.319983        -8.7072 
  17   1.0000      -0.297450        -8.0940 
  18   1.0000      -0.297433        -8.0936 
  19   1.0000      -0.220749        -6.0069 
  20   1.0000      -0.220610        -6.0031 
  21   0.0000      -0.030392        -0.8270 
  22   0.0000      -0.030039        -0.8174 
  23   0.0000       0.061881         1.6839 
  24   0.0000       0.113379         3.0852 
  25   0.0000       0.115311         3.1378 
  26   0.0000       0.117119         3.1870 
  27   0.0000       0.151113         4.1120 
  28   0.0000       0.151572         4.1245 
  29   0.0000       0.160653         4.3716 
  30   0.0000       0.260695         7.0939 
  31   0.0000       0.262209         7.1351 
  32   0.0000       0.274848         7.4790 
  33   0.0000       0.275579         7.4989 
  34   0.0000       0.437970        11.9178 
  35   0.0000       0.482955        13.1419 
  36   0.0000       0.490590        13.3496 
  37   0.0000       0.507128        13.7997 
  38   0.0000       0.507247        13.8029 
  39   0.0000       0.549075        14.9411 
  40   0.0000       0.551021        14.9941 
  41   0.0000       0.556680        15.1480 
  42   0.0000       0.557255        15.1637 
  43   0.0000       0.558188        15.1891 
  44   0.0000       0.582703        15.8562 
  45   0.0000       0.584125        15.8948 
  46   0.0000       0.617135        16.7931 
  47   0.0000       0.619589        16.8599 
  48   0.0000       0.693349        18.8670 
  49   0.0000       0.782649        21.2970 
  50   0.0000       0.784586        21.3497 
  51   0.0000       0.784989        21.3606 
  52   0.0000       0.814453        22.1624 
  53   0.0000       0.815993        22.2043 
  54   0.0000       0.887839        24.1593 
  55   0.0000       0.890088        24.2205 
  56   0.0000       0.890969        24.2445 
  57   0.0000       0.899724        24.4827 
  58   0.0000       1.036966        28.2173 
  59   0.0000       1.037290        28.2261 
  60   0.0000       1.083108        29.4729 
  61   0.0000       1.083521        29.4841 
  62   0.0000       1.141952        31.0741 
  63   0.0000       1.196303        32.5531 
  64   0.0000       1.332199        36.2510 
  65   0.0000       1.371246        37.3135 
  66   0.0000       1.372249        37.3408 
  67   0.0000       1.413930        38.4750 
  68   0.0000       1.414335        38.4860 
  69   0.0000       1.444353        39.3029 
  70   0.0000       1.444640        39.3106 
  71   0.0000       1.686471        45.8912 
  72   0.0000       1.710737        46.5515 
  73   0.0000       1.773220        48.2518 
  74   0.0000       1.832751        49.8717 
  75   0.0000       1.882687        51.2305 
  76   0.0000       1.883425        51.2506 
  77   0.0000       1.976763        53.7904 
  78   0.0000       1.977136        53.8006 
  79   0.0000       2.067007        56.2461 
  80   0.0000       2.067457        56.2584 
  81   0.0000       2.067836        56.2687 
  82   0.0000       2.068238        56.2796 
  83   0.0000       2.219088        60.3844 
  84   0.0000       2.219380        60.3924 
  85   0.0000       2.230973        60.7079 
  86   0.0000       2.457272        66.8658 
  87   0.0000       2.458004        66.8857 
  88   0.0000       2.555099        69.5278 
  89   0.0000       2.600151        70.7537 
  90   0.0000       2.600447        70.7617 
  91   0.0000       2.630783        71.5872 
  92   0.0000       2.631419        71.6046 
  93   0.0000       2.675924        72.8156 
  94   0.0000       2.921846        79.5075 
  95   0.0000       3.292997        89.6070 

                 SPIN DOWN ORBITALS
  NO   OCC          E(Eh)            E(eV) 
   0   1.0000      -9.911286      -269.6998 
   1   1.0000      -9.911238      -269.6985 
   2   1.0000      -9.911103      -269.6948 
   3   1.0000      -9.910952      -269.6907 
   4   1.0000      -9.910855      -269.6881 
   5   1.0000      -9.910800      -269.6866 
   6   1.0000      -0.768217       -20.9043 
   7   1.0000      -0.669066       -18.2062 
   8   1.0000      -0.668992       -18.2042 
   9   1.0000      -0.537770       -14.6335 
  10   1.0000      -0.537743       -14.6327 
  11   1.0000      -0.465513       -12.6673 
  12   1.0000      -0.409244       -11.1361 
  13   1.0000      -0.388968       -10.5844 
  14   1.0000      -0.369740       -10.0611 
  15   1.0000      -0.369596       -10.0572 
  16   1.0000      -0.319983        -8.7072 
  17   1.0000      -0.297450        -8.0940 
  18   1.0000      -0.297433        -8.0936 
  19   1.0000      -0.220749        -6.0069 
  20   1.0000      -0.220610        -6.0031 
  21   0.0000      -0.030392        -0.8270 
  22   0.0000      -0.030039        -0.8174 
  23   0.0000       0.061881         1.6839 
  24   0.0000       0.113379         3.0852 
  25   0.0000       0.115311         3.1378 
  26   0.0000       0.117119         3.1870 
  27   0.0000       0.151113         4.1120 
  28   0.0000       0.151572         4.1245 
  29   0.0000       0.160653         4.3716 
  30   0.0000       0.260695         7.0939 
  31   0.0000       0.262209         7.1351 
  32   0.0000       0.274848         7.4790 
  33   0.0000       0.275579         7.4989 
  34   0.0000       0.437970        11.9178 
  35   0.0000       0.482955        13.1419 
  36   0.0000       0.490590        13.3496 
  37   0.0000       0.507128        13.7997 
  38   0.0000       0.507247        13.8029 
  39   0.0000       0.549075        14.9411 
  40   0.0000       0.551021        14.9941 
  41   0.0000       0.556680        15.1480 
  42   0.0000       0.557255        15.1637 
  43   0.0000       0.558188        15.1891 
  44   0.0000       0.582703        15.8562 
  45   0.0000       0.584125        15.8948 
  46   0.0000       0.617135        16.7931 
  47   0.0000       0.619589        16.8599 
  48   0.0000       0.693349        18.8670 
  49   0.0000       0.782649        21.2970 
  50   0.0000       0.784586        21.3497 
  51   0.0000       0.784989        21.3606 
  52   0.0000       0.814453        22.1624 
  53   0.0000       0.815993        22.2043 
  54   0.0000       0.887839        24.1593 
  55   0.0000       0.890088        24.2205 
  56   0.0000       0.890969        24.2445 
  57   0.0000       0.899724        24.4827 
  58   0.0000       1.036966        28.2173 
  59   0.0000       1.037290        28.2261 
  60   0.0000       1.083108        29.4729 
  61   0.0000       1.083521        29.4841 
  62   0.0000       1.141952        31.0741 
  63   0.0000       1.196303        32.5531 
  64   0.0000       1.332199        36.2510 
  65   0.0000       1.371246        37.3135 
  66   0.0000       1.372249        37.3408 
  67   0.0000       1.413930        38.4750 
  68   0.0000       1.414335        38.4860 
  69   0.0000       1.444353        39.3029 
  70   0.0000       1.444640        39.3106 
  71   0.0000       1.686471        45.8912 
  72   0.0000       1.710737        46.5515 
  73   0.0000       1.773220        48.2518 
  74   0.0000       1.832751        49.8717 
  75   0.0000       1.882687        51.2305 
  76   0.0000       1.883425        51.2506 
  77   0.0000       1.976763        53.7904 
  78   0.0000       1.977136        53.8006 
  79   0.0000       2.067007        56.2461 
  80   0.0000       2.067457        56.2584 
  81   0.0000       2.067836        56.2687 
  82   0.0000       2.068238        56.2796 
  83   0.0000       2.219088        60.3844 
  84   0.0000       2.219380        60.3924 
  85   0.0000       2.230973        60.7079 
  86   0.0000       2.457272        66.8658 
  87   0.0000       2.458004        66.8857 
  88   0.0000       2.555099        69.5278 
  89   0.0000       2.600151        70.7537 
  90   0.0000       2.600447        70.7617 
  91   0.0000       2.630783        71.5872 
  92   0.0000       2.631419        71.6046 
  93   0.0000       2.675924        72.8156 
  94   0.0000       2.921846        79.5075 
  95   0.0000       3.292997        89.6070 

                    ********************************
                    * MULLIKEN POPULATION ANALYSIS *
                    ********************************

--------------------------------------------
MULLIKEN ATOMIC CHARGES AND SPIN POPULATIONS
--------------------------------------------
   0 C :   -0.141875    0.000000
   1 C :   -0.132869    0.000000
   2 C :   -0.137138    0.000000
   3 C :   -0.141872    0.000000
   4 C :   -0.132877    0.000000
   5 C :   -0.137123    0.000000
   6 H :    0.139789    0.000000
   7 H :    0.133818    0.000000
   8 H :    0.138268    0.000000
   9 H :    0.139793    0.000000
  10 H :    0.133816    0.000000
  11 H :    0.138269    0.000000
Sum of atomic charges         :   -0.0000000
Sum of atomic spin populations:    0.0000000

-----------------------------------------------------
MULLIKEN REDUCED ORBITAL CHARGES AND SPIN POPULATIONS
-----------------------------------------------------
CHARGE
  0 C s       :     3.198293  s :     3.198293
      pz      :     0.992948  p :     2.910732
      px      :     0.983064
      py      :     0.934720
      dz2     :     0.003077  d :     0.032850
      dxz     :     0.001809
      dyz     :     0.005706
      dx2y2   :     0.012985
      dxy     :     0.009273
  1 C s       :     3.200212  s :     3.200212
      pz      :     0.992205  p :     2.899830
      px      :     0.933665
      py      :     0.973961
      dz2     :     0.003076  d :     0.032826
      dxz     :     0.005278
      dyz     :     0.002239
      dx2y2   :     0.011338
      dxy     :     0.010895
  2 C s       :     3.200411  s :     3.200411
      pz      :     0.992296  p :     2.903896
      px      :     0.950581
      py      :     0.961019
      dz2     :     0.003080  d :     0.032830
      dxz     :     0.004193
      dyz     :     0.003321
      dx2y2   :     0.009032
      dxy     :     0.013203
  3 C s       :     3.198290  s :     3.198290
      pz      :     0.992954  p :     2.910733
      px      :     0.983056
      py      :     0.934722
      dz2     :     0.003077  d :     0.032850
      dxz     :     0.001809
      dyz     :     0.005706
      dx2y2   :     0.012985
      dxy     :     0.009273
  4 C s       :     3.200217  s :     3.200217
      pz      :     0.992202  p :     2.899834
      px      :     0.933662
      py      :     0.973970
      dz2     :     0.003076  d :     0.032826
      dxz     :     0.005278
      dyz     :     0.002239
      dx2y2   :     0.011338
      dxy     :     0.010895
  5 C s       :     3.200403  s :     3.200403
      pz      :     0.992297  p :     2.903890
      px      :     0.950574
      py      :     0.961018
      dz2     :     0.003080  d :     0.032830
      dxz     :     0.004193
      dyz     :     0.003321
      dx2y2   :     0.009032
      dxy     :     0.013203
  6 H s       :     0.860211  s :     0.860211
  7 H s       :     0.866182  s :     0.866182
  8 H s       :     0.861732  s :     0.861732
  9 H s       :     0.860207  s :     0.860207
 10 H s       :     0.866184  s :     0.866184
 11 H s       :     0.861731  s :     0.861731

SPIN
  0 C s       :     0.000000  s :     0.000000
      pz      :     0.000000  p :     0.000000
      px      :     0.000000
      py      :     0.000000
      dz2     :     0.000000  d :     0.000000
      dxz     :     0.000000
      dyz     :     0.000000
      dx2y2   :     0.000000
      dxy     :     0.000000
  1 C s       :     0.000000  s :     0.000000
      pz      :     0.000000  p :     0.000000
      px      :     0.000000
      py      :     0.000000
      dz2     :     0.000000  d :     0.000000
      dxz     :     0.000000
      dyz     :     0.000000
      dx2y2   :     0.000000
      dxy     :     0.000000
  2 C s       :     0.000000  s :     0.000000
      pz      :     0.000000  p :     0.000000
      px      :     0.000000
      py      :     0.000000
      dz2     :     0.000000  d :     0.000000
      dxz     :     0.000000
      dyz     :     0.000000
      dx2y2   :     0.000000
      dxy     :     0.000000
  3 C s       :     0.000000  s :     0.000000
      pz      :     0.000000  p :     0.000000
      px      :     0.000000
      py      :     0.000000
      dz2     :     0.000000  d :     0.000000
      dxz     :     0.000000
      dyz     :     0.000000
      dx2y2   :     0.000000
      dxy     :     0.000000
  4 C s       :     0.000000  s :     0.000000
      pz      :     0.000000  p :     0.000000
      px      :     0.000000
      py      :     0.000000
      dz2     :     0.000000  d :     0.000000
      dxz     :     0.000000
      dyz     :     0.000000
      dx2y2   :     0.000000
      dxy     :     0.000000
  5 C s       :     0.000000  s :     0.000000
      pz      :     0.000000  p :     0.000000
      px      :     0.000000
      py      :     0.000000
      dz2     :     0.000000  d :     0.000000
      dxz     :     0.000000
      dyz     :     0.000000
      dx2y2   :     0.000000
      dxy     :     0.000000
  6 H s       :     0.000000  s :     0.000000
  7 H s       :     0.000000  s :     0.000000
  8 H s       :     0.000000  s :     0.000000
  9 H s       :     0.000000  s :     0.000000
 10 H s       :     0.000000  s :     0.000000
 11 H s       :     0.000000  s :     0.000000

------------------------
MULLIKEN OVERLAP CHARGES
------------------------
B(  0-C ,  1-C ) :   1.0941 B(  0-C ,  2-C ) :  -0.0603 B(  0-C ,  3-C ) :  -0.0826 
B(  0-C ,  4-C ) :  -0.0588 B(  0-C ,  5-C ) :   1.0927 B(  0-C ,  6-H ) :   0.7129 
B(  0-C ,  7-H ) :  -0.0873 B(  0-C , 11-H ) :  -0.0866 B(  1-C ,  2-C ) :   1.0939 
B(  1-C ,  3-C ) :  -0.0588 B(  1-C ,  4-C ) :  -0.0829 B(  1-C ,  5-C ) :  -0.0577 
B(  1-C ,  6-H ) :  -0.0861 B(  1-C ,  7-H ) :   0.7144 B(  1-C ,  8-H ) :  -0.0868 
B(  2-C ,  3-C ) :   1.0927 B(  2-C ,  4-C ) :  -0.0577 B(  2-C ,  5-C ) :  -0.0821 
B(  2-C ,  7-H ) :  -0.0881 B(  2-C ,  8-H ) :   0.7137 B(  2-C ,  9-H ) :  -0.0861 
B(  3-C ,  4-C ) :   1.0941 B(  3-C ,  5-C ) :  -0.0603 B(  3-C ,  8-H ) :  -0.0866 
B(  3-C ,  9-H ) :   0.7129 B(  3-C , 10-H ) :  -0.0873 B(  4-C ,  5-C ) :   1.0939 
B(  4-C ,  9-H ) :  -0.0861 B(  4-C , 10-H ) :   0.7144 B(  4-C , 11-H ) :  -0.0868 
B(  5-C ,  6-H ) :  -0.0861 B(  5-C , 10-H ) :  -0.0881 B(  5-C , 11-H ) :   0.7137 



                     *******************************
                     * LOEWDIN POPULATION ANALYSIS *
                     *******************************

-------------------------------------------
LOEWDIN ATOMIC CHARGES AND SPIN POPULATIONS
-------------------------------------------
   0 C :   -0.135029    0.000000
   1 C :   -0.132842    0.000000
   2 C :   -0.134420    0.000000
   3 C :   -0.135035    0.000000
   4 C :   -0.132837    0.000000
   5 C :   -0.134418    0.000000
   6 H :    0.134565    0.000000
   7 H :    0.133098    0.000000
   8 H :    0.134627    0.000000
   9 H :    0.134567    0.000000
  10 H :    0.133097    0.000000
  11 H :    0.134628    0.000000

----------------------------------------------------
LOEWDIN REDUCED ORBITAL CHARGES AND SPIN POPULATIONS
----------------------------------------------------
CHARGE
  0 C s       :     2.926833  s :     2.926833
      pz      :     0.984419  p :     3.127407
      px      :     1.072234
      py      :     1.070754
      dz2     :     0.005693  d :     0.080789
      dxz     :     0.003121
      dyz     :     0.012608
      dx2y2   :     0.033015
      dxy     :     0.026353
  1 C s       :     2.926798  s :     2.926798
      pz      :     0.984153  p :     3.125118
      px      :     1.069884
      py      :     1.071081
      dz2     :     0.005690  d :     0.080927
      dxz     :     0.011560
      dyz     :     0.004176
      dx2y2   :     0.030165
      dxy     :     0.029336
  2 C s       :     2.926867  s :     2.926867
      pz      :     0.984283  p :     3.126746
      px      :     1.071155
      py      :     1.071309
      dz2     :     0.005690  d :     0.080806
      dxz     :     0.008910
      dyz     :     0.006810
      dx2y2   :     0.025956
      dxy     :     0.033441
  3 C s       :     2.926834  s :     2.926834
      pz      :     0.984424  p :     3.127412
      px      :     1.072237
      py      :     1.070751
      dz2     :     0.005693  d :     0.080789
      dxz     :     0.003121
      dyz     :     0.012607
      dx2y2   :     0.033016
      dxy     :     0.026351
  4 C s       :     2.926796  s :     2.926796
      pz      :     0.984149  p :     3.125114
      px      :     1.069880
      py      :     1.071084
      dz2     :     0.005690  d :     0.080927
      dxz     :     0.011561
      dyz     :     0.004176
      dx2y2   :     0.030166
      dxy     :     0.029335
  5 C s       :     2.926863  s :     2.926863
      pz      :     0.984284  p :     3.126748
      px      :     1.071148
      py      :     1.071316
      dz2     :     0.005690  d :     0.080807
      dxz     :     0.008910
      dyz     :     0.006810
      dx2y2   :     0.025957
      dxy     :     0.033441
  6 H s       :     0.865435  s :     0.865435
  7 H s       :     0.866902  s :     0.866902
  8 H s       :     0.865373  s :     0.865373
  9 H s       :     0.865433  s :     0.865433
 10 H s       :     0.866903  s :     0.866903
 11 H s       :     0.865372  s :     0.865372

SPIN
  0 C s       :     0.000000  s :     0.000000
      pz      :     0.000000  p :     0.000000
      px      :     0.000000
      py      :     0.000000
      dz2     :     0.000000  d :     0.000000
      dxz     :     0.000000
      dyz     :     0.000000
      dx2y2   :     0.000000
      dxy     :     0.000000
  1 C s       :     0.000000  s :     0.000000
      pz      :     0.000000  p :     0.000000
      px      :     0.000000
      py      :     0.000000
      dz2     :     0.000000  d :     0.000000
      dxz     :     0.000000
      dyz     :     0.000000
      dx2y2   :     0.000000
      dxy     :     0.000000
  2 C s       :     0.000000  s :     0.000000
      pz      :     0.000000  p :     0.000000
      px      :     0.000000
      py      :     0.000000
      dz2     :     0.000000  d :     0.000000
      dxz     :     0.000000
      dyz     :     0.000000
      dx2y2   :     0.000000
      dxy     :     0.000000
  3 C s       :     0.000000  s :     0.000000
      pz      :     0.000000  p :     0.000000
      px      :     0.000000
      py      :     0.000000
      dz2     :     0.000000  d :     0.000000
      dxz     :     0.000000
      dyz     :     0.000000
      dx2y2   :     0.000000
      dxy     :     0.000000
  4 C s       :     0.000000  s :     0.000000
      pz      :     0.000000  p :     0.000000
      px      :     0.000000
      py      :     0.000000
      dz2     :     0.000000  d :     0.000000
      dxz     :     0.000000
      dyz     :     0.000000
      dx2y2   :     0.000000
      dxy     :     0.000000
  5 C s       :     0.000000  s :     0.000000
      pz      :     0.000000  p :     0.000000
      px      :     0.000000
      py      :     0.000000
      dz2     :     0.000000  d :     0.000000
      dxz     :     0.000000
      dyz     :     0.000000
      dx2y2   :     0.000000
      dxy     :     0.000000
  6 H s       :     0.000000  s :     0.000000
  7 H s       :     0.000000  s :     0.000000
  8 H s       :     0.000000  s :     0.000000
  9 H s       :     0.000000  s :     0.000000
 10 H s       :     0.000000  s :     0.000000
 11 H s       :     0.000000  s :     0.000000

---------------------------------
LOEWDIN BOND ORDERS (THRESH 0.050000)
---------------------------------
B(  0-C ,  1-C ) :   1.5033 B(  0-C ,  2-C ) :   0.0713 B(  0-C ,  3-C ) :   0.1190 
B(  0-C ,  4-C ) :   0.0714 B(  0-C ,  5-C ) :   1.5039 B(  0-C ,  6-H ) :   0.9004 
B(  1-C ,  2-C ) :   1.5040 B(  1-C ,  3-C ) :   0.0714 B(  1-C ,  4-C ) :   0.1186 
B(  1-C ,  5-C ) :   0.0714 B(  1-C ,  7-H ) :   0.9011 B(  2-C ,  3-C ) :   1.5039 
B(  2-C ,  4-C ) :   0.0714 B(  2-C ,  5-C ) :   0.1183 B(  2-C ,  8-H ) :   0.9005 
B(  3-C ,  4-C ) :   1.5034 B(  3-C ,  5-C ) :   0.0713 B(  3-C ,  9-H ) :   0.9004 
B(  4-C ,  5-C ) :   1.5040 B(  4-C , 10-H ) :   0.9011 B(  5-C , 11-H ) :   0.9005 


------------------------------------------
LOEWDIN REDUCED ORBITAL POPULATIONS PER MO
-------------------------------------------
THRESHOLD FOR PRINTING IS 0.1%
SPIN UP
                      0         1         2         3         4         5   
                  -9.91129  -9.91124  -9.91110  -9.91095  -9.91086  -9.91080
                   1.00000   1.00000   1.00000   1.00000   1.00000   1.00000
                  --------  --------  --------  --------  --------  --------
 0 C  s              28.3      42.4       0.1      20.3       0.1       8.4
 0 C  py              0.0       0.0       0.2       0.0       0.1       0.0
 1 C  s              10.5       5.1      25.4      17.3      22.0      19.3
 2 C  s              10.0       3.3      24.3      12.0      28.5      21.5
 3 C  s              30.6      40.3       0.1      20.3       0.1       8.2
 3 C  py              0.0       0.0       0.2       0.0       0.1       0.0
 4 C  s              10.9       4.5      25.5      17.8      21.1      19.7
 5 C  s               9.5       3.7      24.0      11.8      27.8      22.6

                      6         7         8         9        10        11   
                  -0.76822  -0.66907  -0.66899  -0.53777  -0.53774  -0.46551
                   1.00000   1.00000   1.00000   1.00000   1.00000   1.00000
                  --------  --------  --------  --------  --------  --------
 0 C  s              12.6      17.9       2.0       7.6       2.4       0.5
 0 C  px              2.3       0.1       0.2       3.3       0.1      11.1
 0 C  py              0.1       0.8       7.7       2.5      11.4       0.3
 0 C  dz2             0.1       0.1       0.0       0.0       0.0       0.0
 0 C  dxy             0.0       0.0       0.2       0.0       0.1       0.0
 1 C  s              12.6      11.2       8.8       7.4       2.6       0.5
 1 C  px              0.3       3.2       4.4       1.6      11.2       1.5
 1 C  py              2.1       0.7       0.6       4.4       0.1       9.9
 1 C  dz2             0.1       0.1       0.1       0.0       0.0       0.0
 1 C  dx2y2           0.0       0.0       0.1       0.0       0.1       0.0
 1 C  dxy             0.0       0.1       0.0       0.0       0.1       0.0
 2 C  s              12.6       0.8      19.1       0.0      10.0       0.5
 2 C  px              0.9       5.0       0.3       8.5       1.3       4.5
 2 C  py              1.4       3.4       0.1       5.7       1.8       6.9
 2 C  dz2             0.1       0.0       0.1       0.0       0.0       0.0
 2 C  dx2y2           0.0       0.2       0.0       0.2       0.0       0.0
 3 C  s              12.6      17.9       2.0       7.6       2.4       0.5
 3 C  px              2.3       0.1       0.2       3.3       0.1      11.1
 3 C  py              0.1       0.8       7.7       2.5      11.4       0.3
 3 C  dz2             0.1       0.1       0.0       0.0       0.0       0.0
 3 C  dxy             0.0       0.0       0.2       0.0       0.1       0.0
 4 C  s              12.6      11.2       8.8       7.4       2.6       0.5
 4 C  px              0.3       3.2       4.4       1.6      11.2       1.5
 4 C  py              2.1       0.7       0.6       4.4       0.1       9.9
 4 C  dz2             0.1       0.1       0.1       0.0       0.0       0.0
 4 C  dx2y2           0.0       0.0       0.1       0.0       0.1       0.0
 4 C  dxy             0.0       0.1       0.0       0.0       0.1       0.0
 5 C  s              12.6       0.8      19.1       0.0      10.0       0.5
 5 C  px              0.9       5.0       0.3       8.5       1.3       4.5
 5 C  py              1.4       3.4       0.1       5.7       1.8       6.9
 5 C  dz2             0.1       0.0       0.1       0.0       0.0       0.0
 5 C  dx2y2           0.0       0.2       0.0       0.2       0.0       0.0
 6 H  s               1.5       3.7       0.4       4.4       1.4       4.8
 7 H  s               1.5       2.3       1.8       4.3       1.5       4.8
 8 H  s               1.5       0.2       4.0       0.0       5.8       4.8
 9 H  s               1.5       3.7       0.4       4.4       1.4       4.8
10 H  s               1.5       2.3       1.8       4.3       1.5       4.8
11 H  s               1.5       0.2       4.0       0.0       5.8       4.8

                     12        13        14        15        16        17   
                  -0.40924  -0.38897  -0.36974  -0.36960  -0.31998  -0.29745
                   1.00000   1.00000   1.00000   1.00000   1.00000   1.00000
                  --------  --------  --------  --------  --------  --------
 0 C  s               3.3       0.0       0.4       0.0       0.0       0.0
 0 C  pz              0.0       0.0       0.0       0.0      16.5       0.0
 0 C  px              5.5       0.4      19.4       1.3       0.0       0.0
 0 C  py              0.1      16.2       0.2       1.6       0.0      12.3
 0 C  dxz             0.0       0.0       0.0       0.0       0.1       0.0
 0 C  dx2y2           0.4       0.0       0.1       0.1       0.0       0.1
 0 C  dxy             0.0       0.1       0.1       0.4       0.0       0.2
 1 C  s               3.3       0.0       0.3       0.2       0.0       0.1
 1 C  pz              0.0       0.0       0.0       0.0      16.5       0.0
 1 C  px              0.7      14.5       0.4       3.4       0.0       0.0
 1 C  py              4.9       2.2      11.3       7.3       0.0       9.9
 1 C  dx2y2           0.2       0.0       0.0       0.3       0.0       0.4
 1 C  dxy             0.2       0.0       0.3       0.0       0.0       0.6
 2 C  s               3.3       0.0       0.0       0.5       0.0       0.0
 2 C  pz              0.0       0.0       0.0       0.0      16.6       0.0
 2 C  px              2.2      10.1       0.1       9.0       0.0       0.2
 2 C  py              3.4       6.5       2.2      11.2       0.0      10.6
 2 C  dx2y2           0.0       0.1       0.4       0.1       0.0       0.0
 2 C  dxy             0.4       0.0       0.0       0.1       0.0       0.7
 3 C  s               3.3       0.0       0.4       0.0       0.0       0.0
 3 C  pz              0.0       0.0       0.0       0.0      16.5       0.0
 3 C  px              5.5       0.4      19.4       1.3       0.0       0.0
 3 C  py              0.1      16.2       0.2       1.6       0.0      12.3
 3 C  dxz             0.0       0.0       0.0       0.0       0.1       0.0
 3 C  dx2y2           0.4       0.0       0.1       0.1       0.0       0.1
 3 C  dxy             0.0       0.1       0.1       0.4       0.0       0.2
 4 C  s               3.3       0.0       0.3       0.2       0.0       0.1
 4 C  pz              0.0       0.0       0.0       0.0      16.5       0.0
 4 C  px              0.7      14.5       0.4       3.4       0.0       0.0
 4 C  py              4.9       2.2      11.3       7.3       0.0       9.9
 4 C  dx2y2           0.2       0.0       0.0       0.3       0.0       0.4
 4 C  dxy             0.2       0.0       0.3       0.0       0.0       0.6
 5 C  s               3.3       0.0       0.0       0.5       0.0       0.0
 5 C  pz              0.0       0.0       0.0       0.0      16.6       0.0
 5 C  px              2.2      10.1       0.1       9.0       0.0       0.2
 5 C  py              3.4       6.5       2.2      11.2       0.0      10.6
 5 C  dx2y2           0.0       0.1       0.4       0.1       0.0       0.0
 5 C  dxy             0.4       0.0       0.0       0.1       0.0       0.7
 6 H  s               7.3       0.0       9.0       0.8       0.0       0.4
 7 H  s               7.3       0.0       5.2       4.6       0.0       8.9
 8 H  s               7.2       0.0       0.5       9.3       0.0       5.7
 9 H  s               7.3       0.0       9.0       0.8       0.0       0.4
10 H  s               7.3       0.0       5.2       4.6       0.0       8.9
11 H  s               7.2       0.0       0.5       9.3       0.0       5.7

                     18        19        20        21        22        23   
                  -0.29743  -0.22075  -0.22061  -0.03039  -0.03004   0.06188
                   1.00000   1.00000   1.00000   0.00000   0.00000   0.00000
                  --------  --------  --------  --------  --------  --------
 0 C  s               0.1       0.0       0.0       0.0       0.0       2.6
 0 C  pz              0.0       2.1      30.6      29.1       2.5       0.0
 0 C  px              9.7       0.0       0.0       0.0       0.0       2.7
 0 C  dxz             0.0       0.0       0.0       0.3       0.0       0.0
 0 C  dyz             0.0       0.6       0.0       0.1       1.4       0.0
 0 C  dx2y2           0.9       0.0       0.0       0.0       0.0       1.1
 0 C  dxy             0.2       0.0       0.0       0.0       0.0       0.1
 1 C  s               0.0       0.0       0.0       0.0       0.0       2.8
 1 C  pz              0.0      16.5      16.2      16.5      15.1       0.0
 1 C  px             12.0       0.0       0.0       0.0       0.0       0.4
 1 C  py              0.1       0.0       0.0       0.0       0.0       2.5
 1 C  dz2             0.0       0.0       0.0       0.0       0.0       0.1
 1 C  dxz             0.0       0.3       0.2       0.4       0.9       0.0
 1 C  dyz             0.0       0.0       0.1       0.4       0.0       0.0
 1 C  dx2y2           0.3       0.0       0.0       0.0       0.0       0.6
 1 C  dxy             0.0       0.0       0.0       0.0       0.0       0.5
 2 C  s               0.0       0.0       0.0       0.0       0.0       2.6
 2 C  pz              0.0      30.4       2.3       1.8      29.8       0.0
 2 C  px             11.1       0.0       0.0       0.0       0.0       1.1
 2 C  py              0.1       0.0       0.0       0.0       0.0       1.7
 2 C  dxz             0.0       0.1       0.3       0.7       0.3       0.0
 2 C  dyz             0.0       0.0       0.3       0.7       0.0       0.0
 2 C  dx2y2           0.3       0.0       0.0       0.0       0.0       0.1
 2 C  dxy             0.3       0.0       0.0       0.0       0.0       1.1
 3 C  s               0.1       0.0       0.0       0.0       0.0       2.6
 3 C  pz              0.0       2.1      30.6      29.1       2.5       0.0
 3 C  px              9.7       0.0       0.0       0.0       0.0       2.7
 3 C  dxz             0.0       0.0       0.0       0.3       0.0       0.0
 3 C  dyz             0.0       0.6       0.0       0.1       1.4       0.0
 3 C  dx2y2           0.9       0.0       0.0       0.0       0.0       1.1
 3 C  dxy             0.2       0.0       0.0       0.0       0.0       0.1
 4 C  s               0.0       0.0       0.0       0.0       0.0       2.8
 4 C  pz              0.0      16.5      16.2      16.5      15.1       0.0
 4 C  px             12.0       0.0       0.0       0.0       0.0       0.4
 4 C  py              0.1       0.0       0.0       0.0       0.0       2.5
 4 C  dz2             0.0       0.0       0.0       0.0       0.0       0.1
 4 C  dxz             0.0       0.3       0.2       0.4       0.9       0.0
 4 C  dyz             0.0       0.0       0.1       0.4       0.0       0.0
 4 C  dx2y2           0.3       0.0       0.0       0.0       0.0       0.6
 4 C  dxy             0.0       0.0       0.0       0.0       0.0       0.5
 5 C  s               0.0       0.0       0.0       0.0       0.0       2.6
 5 C  pz              0.0      30.4       2.3       1.8      29.8       0.0
 5 C  px             11.1       0.0       0.0       0.0       0.0       1.1
 5 C  py              0.1       0.0       0.0       0.0       0.0       1.7
 5 C  dxz             0.0       0.1       0.3       0.7       0.3       0.0
 5 C  dyz             0.0       0.0       0.3       0.7       0.0       0.0
 5 C  dx2y2           0.3       0.0       0.0       0.0       0.0       0.1
 5 C  dxy             0.3       0.0       0.0       0.0       0.0       1.1
 6 H  s               9.5       0.0       0.0       0.0       0.0       9.8
 7 H  s               1.1       0.0       0.0       0.0       0.0      10.2
 8 H  s               4.3       0.0       0.0       0.0       0.0       9.7
 9 H  s               9.5       0.0       0.0       0.0       0.0       9.8
10 H  s               1.1       0.0       0.0       0.0       0.0      10.2
11 H  s               4.3       0.0       0.0       0.0       0.0       9.7

                     24        25        26        27        28        29   
                   0.11338   0.11531   0.11712   0.15111   0.15157   0.16065
                   0.00000   0.00000   0.00000   0.00000   0.00000   0.00000
                  --------  --------  --------  --------  --------  --------
 0 C  s               0.0       0.8       1.8       0.0      11.7       4.6
 0 C  pz             16.0       0.0       0.0       0.0       0.0       0.0
 0 C  px              0.0       3.0       6.9       0.1       2.8       1.5
 0 C  py              0.0       0.5       0.2       1.8       0.1       0.0
 0 C  dz2             0.0       0.0       0.0       0.0       0.8       0.3
 0 C  dxz             0.6       0.0       0.0       0.0       0.0       0.0
 0 C  dx2y2           0.0       0.4       0.3       0.1       0.4       0.1
 0 C  dxy             0.0       0.1       0.3       0.6       0.0       0.0
 1 C  s               0.0       2.7       0.0       8.5       3.1       4.6
 1 C  pz             16.1       0.0       0.0       0.0       0.0       0.0
 1 C  px              0.0       1.4       0.4       0.2       1.7       0.2
 1 C  py              0.0       8.8       0.2       2.2       0.4       1.3
 1 C  dz2             0.0       0.1       0.0       0.6       0.2       0.3
 1 C  dyz             0.5       0.0       0.0       0.0       0.0       0.0
 1 C  dx2y2           0.0       0.4       0.1       0.5       0.1       0.1
 1 C  dxy             0.0       0.3       0.2       0.0       0.6       0.1
 2 C  s               0.0       0.5       2.1       9.1       2.7       4.6
 2 C  pz             16.1       0.0       0.0       0.0       0.0       0.0
 2 C  px              0.0       0.6       3.6       0.5       1.7       0.6
 2 C  py              0.0       1.6       4.7       2.1       0.3       1.0
 2 C  dz2             0.0       0.0       0.0       0.6       0.2       0.3
 2 C  dxz             0.2       0.0       0.0       0.0       0.0       0.0
 2 C  dyz             0.4       0.0       0.0       0.0       0.0       0.0
 2 C  dx2y2           0.0       0.2       0.2       0.3       0.4       0.0
 2 C  dxy             0.0       0.2       0.5       0.2       0.2       0.1
 3 C  s               0.0       0.8       1.8       0.0      11.7       4.6
 3 C  pz             16.0       0.0       0.0       0.0       0.0       0.0
 3 C  px              0.0       3.0       6.9       0.1       2.8       1.5
 3 C  py              0.0       0.5       0.2       1.8       0.1       0.0
 3 C  dz2             0.0       0.0       0.0       0.0       0.8       0.3
 3 C  dxz             0.6       0.0       0.0       0.0       0.0       0.0
 3 C  dx2y2           0.0       0.4       0.3       0.1       0.4       0.1
 3 C  dxy             0.0       0.1       0.3       0.6       0.0       0.0
 4 C  s               0.0       2.7       0.0       8.5       3.1       4.6
 4 C  pz             16.1       0.0       0.0       0.0       0.0       0.0
 4 C  px              0.0       1.4       0.4       0.2       1.7       0.2
 4 C  py              0.0       8.8       0.2       2.2       0.4       1.3
 4 C  dz2             0.0       0.1       0.0       0.6       0.2       0.3
 4 C  dyz             0.5       0.0       0.0       0.0       0.0       0.0
 4 C  dx2y2           0.0       0.4       0.1       0.5       0.1       0.1
 4 C  dxy             0.0       0.3       0.2       0.0       0.6       0.1
 5 C  s               0.0       0.5       2.1       9.2       2.7       4.6
 5 C  pz             16.1       0.0       0.0       0.0       0.0       0.0
 5 C  px              0.0       0.6       3.6       0.5       1.7       0.6
 5 C  py              0.0       1.6       4.7       2.1       0.3       1.0
 5 C  dz2             0.0       0.0       0.0       0.6       0.2       0.3
 5 C  dxz             0.2       0.0       0.0       0.0       0.0       0.0
 5 C  dyz             0.4       0.0       0.0       0.0       0.0       0.0
 5 C  dx2y2           0.0       0.2       0.2       0.3       0.4       0.0
 5 C  dxy             0.0       0.2       0.5       0.2       0.2       0.1
 6 H  s               0.0       5.9      12.9       0.0      15.2      10.2
 7 H  s               0.0      19.0       0.1      10.7       4.0       9.9
 8 H  s               0.0       3.5      15.4      11.8       3.5      10.2
 9 H  s               0.0       5.9      12.9       0.0      15.2      10.2
10 H  s               0.0      19.0       0.1      10.7       4.0       9.9
11 H  s               0.0       3.5      15.4      11.8       3.5      10.2

                     30        31        32        33        34        35   
                   0.26070   0.26221   0.27485   0.27558   0.43797   0.48295
                   0.00000   0.00000   0.00000   0.00000   0.00000   0.00000
                  --------  --------  --------  --------  --------  --------
 0 C  s               0.9       3.7       1.2       3.7       0.0       0.0
 0 C  pz              0.0       0.0       0.0       0.0       0.0      16.7
 0 C  px              2.3       6.7       1.4       1.3       0.4       0.0
 0 C  py              5.5       2.0      10.5       4.1      14.1       0.0
 0 C  dz2             0.2       0.8       0.1       0.5       0.0       0.0
 0 C  dx2y2           0.1       0.8       0.1       3.1       0.2       0.0
 0 C  dxy             4.4       0.7       4.1       0.3       2.0       0.0
 1 C  s               4.6       0.0       1.2       3.5       0.0       0.0
 1 C  pz              0.0       0.0       0.0       0.0       0.0      16.5
 1 C  px              1.3       6.3       8.5       4.7      12.2       0.0
 1 C  py              7.8       1.1       3.1       0.8       1.9       0.0
 1 C  dz2             1.0       0.0       0.1       0.4       0.0       0.0
 1 C  dx2y2           0.3       2.4       0.3       3.4       1.1       0.0
 1 C  dxy             0.1       3.1       3.8       0.0       1.3       0.0
 2 C  s               1.4       3.3       4.8       0.0       0.0       0.0
 2 C  pz              0.0       0.0       0.0       0.0       0.0      16.7
 2 C  px              5.6       2.4       0.9       9.1       8.8       0.0
 2 C  py              2.3       6.2       1.4       5.9       5.7       0.0
 2 C  dz2             0.3       0.7       0.6       0.0       0.0       0.0
 2 C  dx2y2           4.0       1.3       0.1       4.3       2.2       0.0
 2 C  dxy             0.0       0.7       2.9       0.2       0.1       0.0
 3 C  s               0.9       3.7       1.2       3.6       0.0       0.0
 3 C  pz              0.0       0.0       0.0       0.0       0.0      16.7
 3 C  px              2.3       6.7       1.4       1.3       0.4       0.0
 3 C  py              5.5       2.1      10.5       4.1      14.1       0.0
 3 C  dz2             0.2       0.8       0.1       0.4       0.0       0.0
 3 C  dx2y2           0.1       0.8       0.1       3.1       0.2       0.0
 3 C  dxy             4.4       0.7       4.1       0.3       2.0       0.0
 4 C  s               4.6       0.0       1.2       3.5       0.0       0.0
 4 C  pz              0.0       0.0       0.0       0.0       0.0      16.5
 4 C  px              1.3       6.3       8.5       4.7      12.2       0.0
 4 C  py              7.8       1.1       3.1       0.8       1.9       0.0
 4 C  dz2             1.0       0.0       0.1       0.4       0.0       0.0
 4 C  dx2y2           0.3       2.4       0.3       3.4       1.1       0.0
 4 C  dxy             0.1       3.1       3.8       0.0       1.3       0.0
 5 C  s               1.4       3.3       4.8       0.0       0.0       0.0
 5 C  pz              0.0       0.0       0.0       0.0       0.0      16.7
 5 C  px              5.6       2.4       0.9       9.1       8.8       0.0
 5 C  py              2.3       6.2       1.4       5.9       5.7       0.0
 5 C  dz2             0.3       0.7       0.6       0.0       0.0       0.0
 5 C  dx2y2           4.0       1.3       0.1       4.3       2.2       0.0
 5 C  dxy             0.0       0.7       2.9       0.2       0.1       0.0
 6 H  s               1.0       4.1       0.8       2.4       0.0       0.0
 7 H  s               5.2       0.0       0.8       2.4       0.0       0.0
 8 H  s               1.6       3.6       3.2       0.0       0.0       0.0
 9 H  s               1.0       4.1       0.8       2.4       0.0       0.0
10 H  s               5.2       0.0       0.8       2.4       0.0       0.0
11 H  s               1.6       3.6       3.2       0.0       0.0       0.0

                     36        37        38        39        40        41   
                   0.49059   0.50713   0.50725   0.54908   0.55102   0.55668
                   0.00000   0.00000   0.00000   0.00000   0.00000   0.00000
                  --------  --------  --------  --------  --------  --------
 0 C  s               5.8       1.2       1.3       0.4       0.6       8.1
 0 C  pz              0.0       0.0       0.0       0.0       0.0       0.1
 0 C  px              3.4       4.0       4.5       2.1       1.2       0.2
 0 C  py              0.1       6.8       6.2      14.3       7.0       0.6
 0 C  dz2             2.6       0.1       0.1       1.2       1.7       1.8
 0 C  dx2y2           0.0       2.4       0.6       0.0       0.1       0.4
 0 C  dxy             0.0       0.8       2.6       0.0       0.0       0.0
 1 C  s               5.8       1.2       1.3       1.0       0.0       8.0
 1 C  px              0.4       6.2       6.4       0.2      19.4       0.1
 1 C  py              3.0       4.6       4.1       3.0       2.8       0.0
 1 C  dz2             2.6       0.1       0.1       2.1       0.0       2.7
 1 C  dx2y2           0.0       0.0       3.3       0.1       0.0       0.2
 1 C  dxy             0.0       3.2       0.0       0.1       0.0       0.1
 2 C  s               5.7       1.2       1.3       0.4       0.6       8.1
 2 C  pz              0.0       0.0       0.0       0.0       0.0       0.2
 2 C  px              1.4       6.0       5.5      13.2       0.9       0.4
 2 C  py              2.1       4.7       5.3       4.3       6.3       0.1
 2 C  dz2             2.6       0.1       0.1       1.0       2.4       1.4
 2 C  dx2y2           0.0       2.4       1.0       0.0       0.0       0.0
 2 C  dxy             0.0       0.8       2.2       0.0       0.0       0.4
 3 C  s               5.8       1.2       1.3       0.4       0.6       8.1
 3 C  pz              0.0       0.0       0.0       0.0       0.0       0.1
 3 C  px              3.4       4.0       4.5       2.1       1.2       0.2
 3 C  py              0.1       6.8       6.2      14.3       7.1       0.6
 3 C  dz2             2.6       0.1       0.1       1.2       1.7       1.8
 3 C  dx2y2           0.0       2.4       0.6       0.0       0.1       0.4
 3 C  dxy             0.0       0.8       2.6       0.0       0.0       0.0
 4 C  s               5.8       1.2       1.3       1.0       0.0       8.0
 4 C  px              0.4       6.2       6.4       0.2      19.4       0.1
 4 C  py              3.0       4.6       4.1       3.0       2.8       0.0
 4 C  dz2             2.6       0.1       0.1       2.1       0.0       2.7
 4 C  dx2y2           0.0       0.0       3.3       0.1       0.0       0.2
 4 C  dxy             0.0       3.2       0.0       0.1       0.0       0.1
 5 C  s               5.7       1.2       1.3       0.4       0.6       8.1
 5 C  pz              0.0       0.0       0.0       0.0       0.0       0.2
 5 C  px              1.4       6.0       5.5      13.2       0.9       0.4
 5 C  py              2.1       4.7       5.3       4.3       6.3       0.1
 5 C  dz2             2.6       0.1       0.1       1.0       2.4       1.4
 5 C  dx2y2           0.0       2.4       1.0       0.0       0.0       0.0
 5 C  dxy             0.0       0.8       2.2       0.0       0.0       0.4
 6 H  s               4.8       1.4       1.5       2.1       2.6       5.3
 7 H  s               4.8       1.4       1.3       2.9       0.0       7.2
 8 H  s               4.8       1.3       1.4       1.7       4.0       4.3
 9 H  s               4.8       1.4       1.5       2.1       2.6       5.3
[...]
     11      -0.084890  -0.011526  -0.101748  -0.014700   0.053185   0.001122
     12       0.000256  -0.000340  -0.000331   0.000380   0.000263  -0.105001
     13       0.000475  -0.000621  -0.000545   0.000783   0.000485   0.272431
     14      -0.051694   0.067939   0.064095  -0.080397  -0.053484   0.001993
     15      -0.000160  -0.000394  -0.000236  -0.000506  -0.000279  -0.182058
     16      -0.000303  -0.000704  -0.000378  -0.000888  -0.000497  -0.226448
     17       0.032251   0.078533   0.037823   0.095146   0.053758  -0.003092
     18       0.002931   0.000394  -0.002867  -0.000366  -0.002097   0.281648
     19       0.005187   0.000682  -0.005170  -0.000781  -0.003728  -0.048406
     20      -0.567096  -0.075779   0.561479   0.082887   0.402754   0.000378
     21       0.001746  -0.002272   0.001763  -0.002318   0.002037  -0.103285
     22       0.003180  -0.004158   0.003273  -0.004068   0.003721   0.267965
     23      -0.346957   0.453286  -0.352884   0.444978  -0.404795   0.001902
     24      -0.001098  -0.002729   0.001037   0.002668  -0.002084  -0.176387
     25      -0.001986  -0.004812   0.001896   0.004816  -0.003698  -0.225095
     26       0.216819   0.527080  -0.210403  -0.528577   0.406556  -0.002386
     27      -0.002930  -0.000396  -0.002862  -0.000382   0.002091   0.281696
     28      -0.005207  -0.000686  -0.005180  -0.000780   0.003702  -0.048366
     29       0.567180   0.075765   0.561423   0.082888  -0.402701   0.000388
     30      -0.001748   0.002235   0.001745  -0.002307  -0.002040  -0.103252
     31      -0.003213   0.004184   0.003304  -0.004093  -0.003754   0.267935
     32       0.346914  -0.453234  -0.352987   0.444975   0.404828   0.001852
     33       0.001103   0.002685   0.001017   0.002640   0.002072  -0.176422
     34       0.001957   0.004788   0.001881   0.004786   0.003666  -0.225119
     35      -0.216857  -0.527136  -0.210371  -0.528470  -0.406596  -0.002428
                 18         19         20         21         22         23    
      0      -0.272374   0.062671  -0.098246  -0.003361  -0.010409   0.000133
      1       0.043127  -0.074228  -0.036400  -0.021472  -0.054795  -0.024236
      2      -0.000961  -0.000368  -0.000829  -0.000204  -0.000545  -0.000215
      3      -0.099412  -0.085957  -0.011958   0.020475   0.008201   0.055884
      4       0.257256   0.011500   0.111737   0.007751  -0.001239   0.022100
      5       0.001785  -0.000312   0.000941   0.000171   0.000029   0.000481
      6       0.173287   0.062545   0.074806  -0.017185   0.039726  -0.026168
      7       0.214902   0.098141  -0.036120   0.013693  -0.028528   0.025738
      8       0.002870   0.001207   0.000060   0.000038  -0.000059   0.000110
      9       0.272351   0.062648  -0.098241  -0.003375   0.010413  -0.000126
     10      -0.043216  -0.074250  -0.036382  -0.021484   0.054784   0.024228
     11       0.000959  -0.000370  -0.000829  -0.000209   0.000547   0.000216
     12       0.099453  -0.085972  -0.011976   0.020474  -0.008203  -0.055886
     13      -0.257261   0.011533   0.111725   0.007761   0.001241  -0.022106
     14      -0.001813  -0.000306   0.000953   0.000169  -0.000032  -0.000480
     15      -0.173293   0.062580   0.074817  -0.017163  -0.039716   0.026167
     16      -0.214799   0.098144  -0.036117   0.013690   0.028541  -0.025734
     17      -0.002839   0.001193   0.000057   0.000041   0.000058  -0.000113
     18      -0.296934   0.011706  -0.150297  -0.063368  -0.083937  -0.031491
     19       0.048363  -0.431437  -0.324094  -0.402078  -0.521695  -0.223187
     20      -0.001044  -0.003929  -0.003684  -0.004025  -0.005205  -0.002208
     21      -0.109038  -0.490298   0.140544   0.381243   0.064417   0.532463
     22       0.280382  -0.141252   0.178981   0.146888   0.020718   0.205904
     23       0.002159  -0.003768   0.002374   0.003279   0.000524   0.004572
     24       0.188598   0.010771   0.431552  -0.317108   0.358802  -0.264857
     25       0.234750   0.150667  -0.322225   0.255680  -0.286179   0.218041
     26       0.003016   0.001455  -0.000771   0.000711  -0.000781   0.000617
     27       0.296901   0.011690  -0.150277  -0.063385   0.083887   0.031501
     28      -0.048534  -0.431528  -0.324082  -0.402245   0.521502   0.223264
     29       0.001050  -0.003921  -0.003682  -0.004021   0.005211   0.002213
     30       0.108942  -0.490292   0.140490   0.381223  -0.064382  -0.532494
     31      -0.280438  -0.141194   0.178949   0.146880  -0.020699  -0.205905
     32      -0.002064  -0.003787   0.002336   0.003282  -0.000517  -0.004567
     33      -0.188607   0.010848   0.431585  -0.316998  -0.358934   0.264828
     34      -0.234640   0.150637  -0.322229   0.255598   0.286297  -0.218006
     35      -0.003119   0.001501  -0.000761   0.000708   0.000789  -0.000614
                 24         25         26         27         28         29    
      0       0.009276  -0.053363   0.023561   0.093925   0.090634  -0.130200
      1       0.059629  -0.339532  -0.137640   0.056870  -0.213748  -0.257186
      2       0.000599  -0.003343  -0.001150   0.000996  -0.001489  -0.002996
      3       0.056390   0.320898  -0.136703  -0.045495  -0.178774   0.265184
      4       0.021737   0.123622   0.001333  -0.103971   0.078954   0.168995
      5       0.000482   0.002737  -0.000675  -0.001175  -0.000178   0.002872
      6       0.046789  -0.268064   0.063748  -0.114133   0.251487  -0.121078
      7      -0.037851   0.216136   0.070650   0.096460  -0.222423  -0.095791
      8      -0.000101   0.000610   0.000978   0.000293  -0.000755  -0.001491
      9      -0.009284  -0.053415   0.023581   0.093896  -0.090600   0.130279
     10      -0.059654  -0.339511  -0.137703   0.056802   0.213622   0.257214
     11      -0.000603  -0.003356  -0.001155   0.000998   0.001493   0.003002
     12      -0.056370   0.320884  -0.136739  -0.045444   0.178675  -0.265228
     13      -0.021726   0.123705   0.001367  -0.103928  -0.078956  -0.169079
     14      -0.000480   0.002731  -0.000672  -0.001173   0.000172  -0.002871
     15      -0.046800  -0.267981   0.063810  -0.114158  -0.251460   0.120999
     16       0.037863   0.216158   0.070592   0.096429   0.222512   0.095870
     17       0.000102   0.000616   0.000977   0.000295   0.000759   0.001486
     18      -0.063002   0.034152   0.127582   0.061710   0.170846  -0.044521
     19      -0.398433   0.215674   0.460042  -0.264583   0.216578   0.344094
     20      -0.003981   0.002080   0.004861  -0.002131   0.002814   0.002938
     21      -0.375563  -0.202299   0.402657   0.300682   0.102946  -0.373441
     22      -0.144891  -0.078166   0.221076   0.010774   0.202328  -0.070559
     23      -0.003215  -0.001772   0.004042   0.001640   0.002350  -0.002541
     24      -0.315516   0.174557   0.058091   0.420563  -0.328852  -0.071908
     25       0.254451  -0.141072   0.101629  -0.334058   0.244011  -0.154950
     26       0.000699  -0.000327   0.001198  -0.000894   0.000521  -0.001734
     27       0.062972   0.034029   0.127588   0.061736  -0.170711   0.044646
     28       0.398443   0.215584   0.460120  -0.264427  -0.216340  -0.344196
     29       0.003988   0.002154   0.004879  -0.002139  -0.002830  -0.002964
     30       0.375582  -0.202451   0.402709   0.300580  -0.102728   0.373646
     31       0.144884  -0.078099   0.221125   0.010747  -0.202183   0.070527
     32       0.003211  -0.001730   0.004034   0.001633  -0.002333   0.002529
     33       0.315511   0.174405   0.057950   0.420549   0.328959   0.072112
     34      -0.254430  -0.140826   0.101733  -0.334079  -0.243931   0.154801
     35      -0.000703  -0.000360   0.001198  -0.000903  -0.000533   0.001744
                 30         31         32         33         34         35    
      0      -0.036233  -0.046963   0.018174  -0.046893  -0.012080   0.033820
      1       0.005863   0.007980  -0.001215   0.006388   0.005148  -0.005402
      2      -0.000134  -0.000170   0.000083  -0.000184  -0.000015   0.000125
      3       0.012430   0.013792   0.011055  -0.011913   0.014110   0.013336
      4      -0.031508  -0.032594  -0.032321   0.037249  -0.029798  -0.034238
      5      -0.000226  -0.000230  -0.000240   0.000281  -0.000202  -0.000246
      6       0.018868  -0.006102   0.028450  -0.005650  -0.033165  -0.025380
      7       0.023205  -0.004891   0.035771  -0.012204  -0.039883  -0.031367
      8       0.000309  -0.000076   0.000473  -0.000140  -0.000535  -0.000418
      9      -0.036221   0.046919  -0.018158  -0.046950  -0.012112  -0.033817
     10       0.005858  -0.007971   0.001207   0.006394   0.005149   0.005397
     11      -0.000134   0.000170  -0.000083  -0.000184  -0.000015  -0.000125
     12       0.012436  -0.013803  -0.011069  -0.011903   0.014087  -0.013331
     13      -0.031527   0.032630   0.032352   0.037234  -0.029739   0.034226
     14      -0.000229   0.000233   0.000243   0.000284  -0.000204   0.000249
     15       0.018857   0.006101  -0.028408  -0.005650  -0.033184   0.025405
     16       0.023192   0.004885  -0.035723  -0.012203  -0.039913   0.031401
     17       0.000306   0.000075  -0.000468  -0.000139  -0.000531   0.000415
     18       0.436220   0.552820  -0.209280   0.523379   0.138867  -0.367118
     19      -0.069056  -0.087830   0.031241  -0.081147  -0.026393   0.057958
     20       0.001628   0.002058  -0.000798   0.001970   0.000478  -0.001371
     21      -0.147915  -0.151665  -0.142743   0.155306  -0.135389  -0.144448
     22       0.382387   0.389719   0.373933  -0.411400   0.341578   0.374104
     23       0.002754   0.002804   0.002703  -0.002986   0.002448   0.002698
     24      -0.229510   0.058642  -0.338859   0.089353   0.367517   0.278573
     25      -0.284243   0.069786  -0.420540   0.117981   0.453775   0.345133
     26      -0.003778   0.000940  -0.005587   0.001539   0.006041   0.004589
     27       0.436088  -0.552325   0.209083   0.524036   0.139231   0.367091
     28      -0.069009   0.087721  -0.031192  -0.081220  -0.026440  -0.057931
     29       0.001624  -0.002052   0.000795   0.001968   0.000479   0.001368
     30      -0.147984   0.151801   0.142872   0.155211  -0.135122   0.144382
     31       0.382603  -0.390117  -0.374292  -0.411193   0.340915  -0.373960
     32       0.002794  -0.002845  -0.002743  -0.003025   0.002476  -0.002734
     33      -0.229384  -0.058615   0.338396   0.089347   0.367776  -0.278874
     34      -0.284100  -0.069750   0.419986   0.117976   0.454118  -0.345523
     35      -0.003740  -0.000930   0.005527   0.001524   0.005988  -0.004551


-----------
IR SPECTRUM
-----------

 Mode    freq (cm**-1)   T**2         TX         TY         TZ
-------------------------------------------------------------------
   6:       397.98    0.000105  ( -0.000165  -0.000699   0.010209)
   7:       398.82    0.000429  (  0.002055  -0.001461  -0.020564)
   8:       600.53    0.000000  ( -0.000028  -0.000099   0.000135)
   9:       600.89    0.000000  (  0.000037  -0.000000   0.000103)
  10:       666.21   82.110173  (  0.050556   0.088807  -9.060890)
  11:       695.24    0.000001  (  0.000124   0.000528  -0.000737)
  12:       829.45    0.000001  (  0.000037  -0.000761   0.000053)
  13:       830.38    0.000001  ( -0.000763  -0.000017  -0.000025)
  14:       925.03    0.003637  ( -0.009171   0.007840   0.059089)
  15:       926.03    0.002722  (  0.005336  -0.001396  -0.051879)
  16:       967.18    0.000001  ( -0.000192  -0.000855   0.000075)
  17:       985.72    0.000288  ( -0.012173   0.011825   0.000205)
  18:       996.43    0.000000  ( -0.000136  -0.000122  -0.000007)
  19:      1040.89    3.874909  ( -1.460370  -1.319787  -0.019774)
  20:      1041.82    3.573054  (  1.270811  -1.399305  -0.006255)
  21:      1152.64    0.007026  ( -0.083701  -0.004423  -0.000852)
  22:      1173.47    0.000000  ( -0.000464  -0.000086   0.000062)
  23:      1173.91    0.000000  ( -0.000161   0.000370   0.000029)
  24:      1338.15    0.000000  ( -0.000056   0.000032  -0.000001)
  25:      1357.28    0.002306  (  0.047396   0.007687   0.000268)
  26:      1483.14    5.938730  (  1.447810   1.960084   0.025410)
  27:      1483.56    5.839921  (  1.927724  -1.457323  -0.003333)
  28:      1606.47    0.000000  (  0.000361   0.000273  -0.000080)
  29:      1607.32    0.000000  (  0.000285  -0.000283  -0.000129)
  30:      3093.76    0.392908  ( -0.513182  -0.359909  -0.004186)
  31:      3102.20    0.000015  ( -0.003248   0.002107   0.000019)
  32:      3105.15    0.000021  (  0.002333   0.003986   0.000116)
  33:      3118.55   54.150700  ( -6.599059   3.256241  -0.003641)
  34:      3121.25   53.571721  ( -3.163311  -6.599994  -0.072536)
  35:      3130.81    0.000004  (  0.001745   0.001001   0.000012)

The first frequency considered to be a vibration is 6
The total number of vibrations considered is 30


--------------------------
THERMOCHEMISTRY AT 298.15K
--------------------------

Temperature         ... 298.15 K
Pressure            ... 1.00 atm
Total Mass          ... 78.11 AMU

Throughout the following assumptions are being made:
  (1) The electronic state is orbitally nondegenerate
  (2) There are no thermally accessible electronically excited states
  (3) Hindered rotations indicated by low frequency modes are not
      treated as such but are treated as vibrations and this may
      cause some error
  (4) All equations used are the standard statistical mechanics
      equations for an ideal gas
  (5) All vibrations are strictly harmonic

freq.     397.98  E(vib)   ...       0.20 
freq.     398.82  E(vib)   ...       0.19 
freq.     600.53  E(vib)   ...       0.10 
freq.     600.89  E(vib)   ...       0.10 
freq.     666.21  E(vib)   ...       0.08 
freq.     695.24  E(vib)   ...       0.07 
freq.     829.45  E(vib)   ...       0.04 
freq.     830.38  E(vib)   ...       0.04 
freq.     925.03  E(vib)   ...       0.03 
freq.     926.03  E(vib)   ...       0.03 
freq.     967.18  E(vib)   ...       0.03 
freq.     985.72  E(vib)   ...       0.02 
freq.     996.43  E(vib)   ...       0.02 
freq.    1040.89  E(vib)   ...       0.02 
freq.    1041.82  E(vib)   ...       0.02 
freq.    1152.64  E(vib)   ...       0.01 
freq.    1173.47  E(vib)   ...       0.01 
freq.    1173.91  E(vib)   ...       0.01 
freq.    1338.15  E(vib)   ...       0.01 
freq.    1357.28  E(vib)   ...       0.01 
freq.    1483.14  E(vib)   ...       0.00 
freq.    1483.56  E(vib)   ...       0.00 
freq.    1606.47  E(vib)   ...       0.00 
freq.    1607.32  E(vib)   ...       0.00 
freq.    3093.76  E(vib)   ...       0.00 
freq.    3102.20  E(vib)   ...       0.00 
freq.    3105.15  E(vib)   ...       0.00 
freq.    3118.55  E(vib)   ...       0.00 
freq.    3121.25  E(vib)   ...       0.00 
freq.    3130.81  E(vib)   ...       0.00 

------------
INNER ENERGY
------------

The inner energy is: U= E(el) + E(ZPE) + E(vib) + E(rot) + E(trans)
    E(el)   - is the total energy from the electronic structure calculation
              = E(kin-el) + E(nuc-el) + E(el-el) + E(nuc-nuc)
    E(ZPE)  - the the zero temperature vibrational energy from the frequency calculation
    E(vib)  - the the finite temperature correction to E(ZPE) due to population
              of excited vibrational states
    E(rot)  - is the rotational thermal energy
    E(trans)- is the translational thermal energy

Summary of contributions to the inner energy U:
Electronic energy                ...   -232.23568562 Eh
Zero point energy                ...      0.09784791 Eh      61.40 kcal/mol
Thermal vibrational correction   ...      0.00169473 Eh       1.06 kcal/mol
Thermal rotational correction    ...      0.00141627 Eh       0.89 kcal/mol
Thermal translational correction ...      0.00141627 Eh       0.89 kcal/mol
-----------------------------------------------------------------------
Total thermal energy                   -232.13331043 Eh


Summary of corrections to the electronic energy:
(perhaps to be used in another calculation)
Total thermal correction                  0.00452727 Eh       2.84 kcal/mol
Non-thermal (ZPE) correction              0.09784791 Eh      61.40 kcal/mol
-----------------------------------------------------------------------
Total correction                          0.10237518 Eh      64.24 kcal/mol


--------
ENTHALPY
--------

The enthalpy is H = U + kB*T
                kB is Boltzmann's constant
Total free energy                 ...   -232.13331043 Eh 
Thermal Enthalpy correction       ...      0.00094421 Eh       0.59 kcal/mol
-----------------------------------------------------------------------
Total Enthalpy                    ...   -232.13236622 Eh


Note: Only C1 symmetry has been detected, increase convergence thresholds 
      if your molecule has a higher symmetry. Symmetry factor of 1.0 is   
      used for the rotational entropy correction. 
 

Note: Rotational entropy computed according to Herzberg 
Infrared and Raman Spectra, Chapter V,1, Van Nostrand Reinhold, 1945 
Point Group:  C1, Symmetry Number:   1  
Rotational constants in cm-1:     0.187435     0.187358     0.093698 

Vibrational entropy computed according to the QRRHO of S. Grimme
Chem.Eur.J. 2012 18 9955


-------
ENTROPY
-------

The entropy contributions are T*S = T*(S(el)+S(vib)+S(rot)+S(trans))
     S(el)   - electronic entropy
     S(vib)  - vibrational entropy
     S(rot)  - rotational entropy
     S(trans)- translational entropy
The entropies will be listed as mutliplied by the temperature to get
units of energy

Electronic entropy                ...      0.00000000 Eh      0.00 kcal/mol
Vibrational entropy               ...      0.00228462 Eh      1.43 kcal/mol
Rotational entropy                ...      0.01220963 Eh      7.66 kcal/mol
Translational entropy             ...      0.01852142 Eh     11.62 kcal/mol
-----------------------------------------------------------------------
Final entropy term                ...      0.03301567 Eh     20.72 kcal/mol

In case the symmetry of your molecule has not been determined correctly
or in case you have a reason to use a different symmetry number we print 
out the resulting rotational entropy values for sn=1,12 :
 --------------------------------------------------------
|  sn= 1 | S(rot)=       0.01220963 Eh      7.66 kcal/mol|
|  sn= 2 | S(rot)=       0.01155517 Eh      7.25 kcal/mol|
|  sn= 3 | S(rot)=       0.01117234 Eh      7.01 kcal/mol|
|  sn= 4 | S(rot)=       0.01090071 Eh      6.84 kcal/mol|
|  sn= 5 | S(rot)=       0.01069003 Eh      6.71 kcal/mol|
|  sn= 6 | S(rot)=       0.01051788 Eh      6.60 kcal/mol|
|  sn= 7 | S(rot)=       0.01037234 Eh      6.51 kcal/mol|
|  sn= 8 | S(rot)=       0.01024626 Eh      6.43 kcal/mol|
|  sn= 9 | S(rot)=       0.01013505 Eh      6.36 kcal/mol|
|  sn=10 | S(rot)=       0.01003557 Eh      6.30 kcal/mol|
|  sn=11 | S(rot)=       0.00994558 Eh      6.24 kcal/mol|
|  sn=12 | S(rot)=       0.00986343 Eh      6.19 kcal/mol|
 --------------------------------------------------------


-------------------
GIBBS FREE ENERGY
-------------------

The Gibbs free energy is G = H - T*S

Total enthalpy                    ...   -232.13236622 Eh 
Total entropy correction          ...     -0.03301567 Eh    -20.72 kcal/mol
-----------------------------------------------------------------------
Final Gibbs free energy         ...   -232.16538189 Eh

For completeness - the Gibbs free energy minus the electronic energy
G-E(el)                           ...      0.07030372 Eh     44.12 kcal/mol


Timings for individual modules:

Sum of individual times         ...      227.747 sec (=   3.796 min)
GTO integral calculation        ...        0.422 sec (=   0.007 min)   0.2 %
SCF iterations                  ...        7.944 sec (=   0.132 min)   3.5 %
Analytical frequency calculation...      219.381 sec (=   3.656 min)  96.3 %
                             ****ORCA TERMINATED NORMALLY****
TOTAL RUN TIME: 0 days 0 hours 3 minutes 48 seconds 371 msec
