
                                 *****************
                                 * O   R   C   A *
                                 *****************

           --- An Ab Initio, DFT and Semiempirical electronic structure package ---

                  #######################################################
                  #                        -***-                        #
                  #          Department of theory and spectroscopy      #
                  #               Directorship: Frank Neese             #
                  #        Max Planck Institute fuer Kohlenforschung    #
                  #                Kaiser Wilhelm Platz 1               #
                  #                 D-45470 Muelheim/Ruhr               #
                  #                      Germany                        #
                  #                                                     #
                  #                  All rights reserved                #
                  #                        -***-                        #
                  #######################################################


                         Program Version 4.2.0 -  RELEASE  -


 With contributions from (in alphabetic order):
   Daniel Aravena         : Magnetic Suceptibility
   Michael Atanasov       : Ab Initio Ligand Field Theory (pilot matlab implementation)
   Alexander A. Auer      : GIAO ZORA, VPT2
   Ute Becker             : Parallelization
   Giovanni Bistoni       : ED, misc. LED, open-shell LED, HFLED
   Martin Brehm           : Molecular dynamics
   Dmytro Bykov           : SCF Hessian
   Vijay G. Chilkuri      : MRCI spin determinant printing, contributions to CSF-ICE
   Dipayan Datta          : RHF DLPNO-CCSD density
   Achintya Kumar Dutta   : EOM-CC, STEOM-CC
   Dmitry Ganyushin       : Spin-Orbit,Spin-Spin,Magnetic field MRCI
   Miquel Garcia          : C-PCM Hessian, Gaussian charge scheme
   Yang Guo               : DLPNO-NEVPT2, CIM, IAO-localization
   Andreas Hansen         : Spin unrestricted coupled pair/coupled cluster methods
   Benjamin Helmich-Paris : CASSCF linear response (MC-RPA)
   Lee Huntington         : MR-EOM, pCC
   Robert Izsak           : Overlap fitted RIJCOSX, COSX-SCS-MP3, EOM
   Christian Kollmar      : KDIIS, OOCD, Brueckner-CCSD(T), CCSD density
   Simone Kossmann        : Meta GGA functionals, TD-DFT gradient, OOMP2, MP2 Hessian
   Martin Krupicka        : AUTO-CI
   Lucas Lang             : DCDCAS
   Dagmar Lenk            : GEPOL surface, SMD
   Dimitrios Liakos       : Extrapolation schemes; Compound Job, initial MDCI parallelization
   Dimitrios Manganas     : Further ROCIS development; embedding schemes
   Dimitrios Pantazis     : SARC Basis sets
   Taras Petrenko         : DFT Hessian,TD-DFT gradient, ASA, ECA, R-Raman, ABS, FL, XAS/XES, NRVS
   Peter Pinski           : DLPNO-MP2, DLPNO-MP2 Gradient
   Christoph Reimann      : Effective Core Potentials
   Marius Retegan         : Local ZFS, SOC
   Christoph Riplinger    : Optimizer, TS searches, QM/MM, DLPNO-CCSD(T), (RO)-DLPNO pert. Triples
   Tobias Risthaus        : Range-separated hybrids, TD-DFT gradient, RPA, STAB
   Michael Roemelt        : Original ROCIS implementation
   Masaaki Saitow         : Open-shell DLPNO-CCSD energy and density
   Barbara Sandhoefer     : DKH picture change effects
   Avijit Sen             : IP-ROCIS
   Kantharuban Sivalingam : CASSCF convergence, NEVPT2, FIC-MRCI
   Bernardo de Souza      : ESD, SOC TD-DFT
   Georgi Stoychev        : AutoAux, RI-MP2 NMR
   Willem Van den Heuvel  : Paramagnetic NMR
   Boris Wezisla          : Elementary symmetry handling
   Frank Wennmohs         : Technical directorship


 We gratefully acknowledge several colleagues who have allowed us to
 interface, adapt or use parts of their codes:
   Stefan Grimme, W. Hujo, H. Kruse,             : VdW corrections, initial TS optimization,
                  C. Bannwarth                     DFT functionals, gCP, sTDA/sTD-DF
   Ed Valeev, F. Pavosevic, A. Kumar             : LibInt (2-el integral package), F12 methods
   Garnet Chan, S. Sharma, J. Yang, R. Olivares  : DMRG
   Ulf Ekstrom                                   : XCFun DFT Library
   Mihaly Kallay                                 : mrcc  (arbitrary order and MRCC methods)
   Andreas Klamt, Michael Diedenhofen            : otool_cosmo (COSMO solvation model)
   Jiri Pittner, Ondrej Demel                    : Mk-CCSD
   Frank Weinhold                                : gennbo (NPA and NBO analysis)
   Christopher J. Cramer and Donald G. Truhlar   : smd solvation model
   Lars Goerigk                                  : TD-DFT with DH, B97 family of functionals
   V. Asgeirsson, H. Jonsson                     : NEB implementation
   FAccTs GmbH                                   : IRC, NEB, NEB-TS, Multilevel, MM, QM/MM, CI optimization
   S Lehtola, MJT Oliveira, MAL Marques          : LibXC Library


 Your calculation uses the libint2 library for the computation of 2-el integrals
 For citations please refer to: http://libint.valeyev.net

 Your ORCA version has been built with support for libXC version: 4.2.3
 For citations please refer to: https://tddft.org/programs/libxc/

 This ORCA versions uses:
   CBLAS   interface :  Fast vector & matrix operations
   LAPACKE interface :  Fast linear algebra routines
   SCALAPACK package :  Parallel linear algebra routines




***************************************
The coordinates will be read from file: benzene_0_1_bp86_6-31gpol.mecp.xyz
***************************************


----- Orbital basis set information -----
Your calculation utilizes the basis: def2-SVP
   F. Weigend and R. Ahlrichs, Phys. Chem. Chem. Phys. 7, 3297 (2005).

----- AuxJ basis set information -----
Your calculation utilizes the AutoAux generation procedure.
  G. L. Stoychev, A. A. Auer, F. Neese, J. Chem. Theory Comput. 13, 554 (2017)

----- AuxC basis set information -----
Your calculation utilizes the AutoAux generation procedure.
  G. L. Stoychev, A. A. Auer, F. Neese, J. Chem. Theory Comput. 13, 554 (2017)

----- AuxJK basis set information -----
Your calculation utilizes the AutoAux generation procedure.
  G. L. Stoychev, A. A. Auer, F. Neese, J. Chem. Theory Comput. 13, 554 (2017)

================================================================================
                                        WARNINGS
                       Please study these warnings very carefully!
================================================================================

INFO   : Checking CIS options ...

WARNING: (CIS/TDDFT): Spin-orbit needs TRIPLETS set to TRUE
  ===> : ajusting flags

WARNING: CIS/ROCIS methods need fully converged wavefunctions
  ===> : Setting SCFConvForced true
         You can overwrite this default with %scf ConvForced false 


INFO   : the flag for use of LIBINT has been found!

================================================================================
                                       INPUT FILE
================================================================================
NAME = benzene_0_1_b3lyp_def2-svp.soc.inp
|  1> !rks b3lyp def2-svp tightscf
|  2> !autoaux
|  3> !normalprint
|  4> !pal8
|  5> 
|  6> %scf
|  7>   maxiter 500
|  8> end
|  9> 
| 10> %tddft
| 11>   nroots 10
| 12>   dosoc true
| 13> end
| 14> 
| 15> *xyzfile 0 1 benzene_0_1_bp86_6-31gpol.mecp.xyz
| 16> 
| 17>                          ****END OF INPUT****
================================================================================

                       ****************************
                       * Single Point Calculation *
                       ****************************

---------------------------------
CARTESIAN COORDINATES (ANGSTROEM)
---------------------------------
  C      1.386755   -0.082271    0.026269
  C      0.468553   -1.160976    0.278905
  C     -0.931985   -1.024600   -0.021094
  C     -1.445717    0.227550   -0.289133
  C     -0.539545    1.326527    0.151127
  C      0.891094    1.177239   -0.240593
  H      2.455465   -0.310123   -0.082237
  H      0.869556   -2.158262    0.489170
  H     -1.534723   -1.931458   -0.161026
  H     -2.430987    0.391501   -0.738621
  H     -0.628758    1.489861    1.250237
  H      1.497642    1.989053   -0.656996

----------------------------
CARTESIAN COORDINATES (A.U.)
----------------------------
  NO LB      ZA    FRAG     MASS         X           Y           Z
   0 C     6.0000    0    12.011    2.620588   -0.155469    0.049642
   1 C     6.0000    0    12.011    0.885437   -2.193927    0.527053
   2 C     6.0000    0    12.011   -1.761196   -1.936213   -0.039861
   3 C     6.0000    0    12.011   -2.732009    0.430006   -0.546382
   4 C     6.0000    0    12.011   -1.019593    2.506772    0.285589
   5 C     6.0000    0    12.011    1.683924    2.224659   -0.454654
   6 H     1.0000    0     1.008    4.640157   -0.586048   -0.155405
   7 H     1.0000    0     1.008    1.643223   -4.078523    0.924398
   8 H     1.0000    0     1.008   -2.900207   -3.649927   -0.304294
   9 H     1.0000    0     1.008   -4.593900    0.739830   -1.395792
  10 H     1.0000    0     1.008   -1.188181    2.815429    2.362606
  11 H     1.0000    0     1.008    2.830133    3.758765   -1.241542

--------------------------------
INTERNAL COORDINATES (ANGSTROEM)
--------------------------------
 C      0   0   0     0.000000000000     0.00000000     0.00000000
 C      1   0   0     1.438932316517     0.00000000     0.00000000
 C      2   1   0     1.438785280500   120.89628429     0.00000000
 C      3   2   1     1.379726232258   119.27315138   346.53131118
 C      4   3   2     1.490881185917   112.66182410   343.48687576
 C      1   2   3     1.379586525247   119.28189292    13.50798246
 H      1   2   3     1.098103408979   118.87041090   201.63733097
 H      2   1   3     1.095259278388   118.86018993   166.44045586
 H      3   2   1     1.097846448259   118.86219658   158.52541424
 H      4   3   2     1.095298115612   123.40203094   165.87531384
 H      5   4   3     1.114755635718   110.51909842   280.92700275
 H      6   1   2     1.095597370107   123.44230923   194.08507301

---------------------------
INTERNAL COORDINATES (A.U.)
---------------------------
 C      0   0   0     0.000000000000     0.00000000     0.00000000
 C      1   0   0     2.719188003466     0.00000000     0.00000000
 C      2   1   0     2.718910145661   120.89628429     0.00000000
 C      3   2   1     2.607304718755   119.27315138   346.53131118
 C      4   3   2     2.817357139600   112.66182410   343.48687576
 C      1   2   3     2.607040710765   119.28189292    13.50798246
 H      1   2   3     2.075114709695   118.87041090   201.63733097
 H      2   1   3     2.069740081790   118.86018993   166.44045586
 H      3   2   1     2.074629124307   118.86219658   158.52541424
 H      4   3   2     2.069813473507   123.40203094   165.87531384
 H      5   4   3     2.106582857753   110.51909842   280.92700275
 H      6   1   2     2.070378982546   123.44230923   194.08507301

---------------------
BASIS SET INFORMATION
---------------------
There are 2 groups of distinct atoms

 Group   1 Type C   : 7s4p1d contracted to 3s2p1d pattern {511/31/1}
 Group   2 Type H   : 4s1p contracted to 2s1p pattern {31/1}

Atom   0C    basis set group =>   1
Atom   1C    basis set group =>   1
Atom   2C    basis set group =>   1
Atom   3C    basis set group =>   1
Atom   4C    basis set group =>   1
Atom   5C    basis set group =>   1
Atom   6H    basis set group =>   2
Atom   7H    basis set group =>   2
Atom   8H    basis set group =>   2
Atom   9H    basis set group =>   2
Atom  10H    basis set group =>   2
Atom  11H    basis set group =>   2
---------------------------------
AUXILIARY/J BASIS SET INFORMATION
---------------------------------
There are 2 groups of distinct atoms

 Group   1 Type C   : 14s11p10d2f contracted to 14s11p10d2f pattern {11111111111111/11111111111/1111111111/11}
 Group   2 Type H   : 9s2p1d contracted to 9s2p1d pattern {111111111/11/1}

Atom   0C    basis set group =>   1
Atom   1C    basis set group =>   1
Atom   2C    basis set group =>   1
Atom   3C    basis set group =>   1
Atom   4C    basis set group =>   1
Atom   5C    basis set group =>   1
Atom   6H    basis set group =>   2
Atom   7H    basis set group =>   2
Atom   8H    basis set group =>   2
Atom   9H    basis set group =>   2
Atom  10H    basis set group =>   2
Atom  11H    basis set group =>   2
---------------------------------
AUXILIARY/C BASIS SET INFORMATION
---------------------------------
There are 2 groups of distinct atoms

 Group   1 Type C   : 14s11p10d2f contracted to 14s11p10d2f pattern {11111111111111/11111111111/1111111111/11}
 Group   2 Type H   : 9s2p1d contracted to 9s2p1d pattern {111111111/11/1}

Atom   0C    basis set group =>   1
Atom   1C    basis set group =>   1
Atom   2C    basis set group =>   1
Atom   3C    basis set group =>   1
Atom   4C    basis set group =>   1
Atom   5C    basis set group =>   1
Atom   6H    basis set group =>   2
Atom   7H    basis set group =>   2
Atom   8H    basis set group =>   2
Atom   9H    basis set group =>   2
Atom  10H    basis set group =>   2
Atom  11H    basis set group =>   2
----------------------------------
AUXILIARY/JK BASIS SET INFORMATION
----------------------------------
There are 2 groups of distinct atoms

 Group   1 Type C   : 14s11p10d2f contracted to 14s11p10d2f pattern {11111111111111/11111111111/1111111111/11}
 Group   2 Type H   : 9s2p1d contracted to 9s2p1d pattern {111111111/11/1}

Atom   0C    basis set group =>   1
Atom   1C    basis set group =>   1
Atom   2C    basis set group =>   1
Atom   3C    basis set group =>   1
Atom   4C    basis set group =>   1
Atom   5C    basis set group =>   1
Atom   6H    basis set group =>   2
Atom   7H    basis set group =>   2
Atom   8H    basis set group =>   2
Atom   9H    basis set group =>   2
Atom  10H    basis set group =>   2
Atom  11H    basis set group =>   2


           ************************************************************
           *        Program running with 8 parallel MPI-processes     *
           *              working on a common directory               *
           ************************************************************
------------------------------------------------------------------------------
                           ORCA GTO INTEGRAL CALCULATION
------------------------------------------------------------------------------

                         BASIS SET STATISTICS AND STARTUP INFO

 # of primitive gaussian shells          ...  102
 # of primitive gaussian functions       ...  186
 # of contracted shells                  ...   54
 # of contracted basis functions         ...  114
 Highest angular momentum                ...    2
 Maximum contraction depth               ...    5
 Integral package used                   ... LIBINT
 Integral threshhold            Thresh   ...  2.500e-11
 Primitive cut-off              TCut     ...  2.500e-12


------------------------------ INTEGRAL EVALUATION ----------------------------


 * One electron integrals 
 Pre-screening matrix                    ... done
 Shell pair data                         ... done (   0.001 sec)



           ************************************************************
           *        Program running with 8 parallel MPI-processes     *
           *              working on a common directory               *
           ************************************************************
-------------------------------------------------------------------------------
                                 ORCA SCF
-------------------------------------------------------------------------------

------------
SCF SETTINGS
------------
Hamiltonian:
 Density Functional     Method          .... DFT(GTOs)
 Exchange Functional    Exchange        .... B88
   X-Alpha parameter    XAlpha          ....  0.666667
   Becke's b parameter  XBeta           ....  0.004200
 Correlation Functional Correlation     .... LYP
 LDA part of GGA corr.  LDAOpt          .... VWN-5
 Gradients option       PostSCFGGA      .... off
 Hybrid DFT is turned on
   Fraction HF Exchange ScalHFX         ....  0.200000
   Scaling of DF-GGA-X  ScalDFX         ....  0.720000
   Scaling of DF-GGA-C  ScalDFC         ....  0.810000
   Scaling of DF-LDA-C  ScalLDAC        ....  1.000000
   Perturbative correction              ....  0.000000
   Density functional embedding theory  .... OFF
   NL short-range parameter             ....  4.800000


General Settings:
 Integral files         IntName         .... benzene_0_1_b3lyp_def2-svp.soc
 Hartree-Fock type      HFTyp           .... RHF
 Total Charge           Charge          ....    0
 Multiplicity           Mult            ....    1
 Number of Electrons    NEL             ....   42
 Basis Dimension        Dim             ....  114
 Nuclear Repulsion      ENuc            ....    200.4035608738 Eh

Convergence Acceleration:
 DIIS                   CNVDIIS         .... on
   Start iteration      DIISMaxIt       ....    12
   Startup error        DIISStart       ....  0.200000
   # of expansion vecs  DIISMaxEq       ....     5
   Bias factor          DIISBfac        ....   1.050
   Max. coefficient     DIISMaxC        ....  10.000
 Newton-Raphson         CNVNR           .... off
 SOSCF                  CNVSOSCF        .... on
   Start iteration      SOSCFMaxIt      ....   150
   Startup grad/error   SOSCFStart      ....  0.003300
 Level Shifting         CNVShift        .... on
   Level shift para.    LevelShift      ....    0.2500
   Turn off err/grad.   ShiftErr        ....    0.0010
 Zerner damping         CNVZerner       .... off
 Static damping         CNVDamp         .... on
   Fraction old density DampFac         ....    0.7000
   Max. Damping (<1)    DampMax         ....    0.9800
   Min. Damping (>=0)   DampMin         ....    0.0000
   Turn off err/grad.   DampErr         ....    0.1000
 Fernandez-Rico         CNVRico         .... off

SCF Procedure:
 Maximum # iterations   MaxIter         ....   500
 SCF integral mode      SCFMode         .... Direct
   Integral package                     .... LIBINT
 Reset frequency        DirectResetFreq ....    20
 Integral Threshold     Thresh          ....  2.500e-11 Eh
 Primitive CutOff       TCut            ....  2.500e-12 Eh

Convergence Tolerance:
 Convergence Check Mode ConvCheckMode   .... Total+1el-Energy
 Convergence forced     ConvForced      .... 1
 Energy Change          TolE            ....  1.000e-08 Eh
 1-El. energy change                    ....  1.000e-05 Eh
 Orbital Gradient       TolG            ....  1.000e-05
 Orbital Rotation angle TolX            ....  1.000e-05
 DIIS Error             TolErr          ....  5.000e-07


Diagonalization of the overlap matrix:
Smallest eigenvalue                        ... 8.639e-04
Time for diagonalization                   ...    0.135 sec
Threshold for overlap eigenvalues          ... 1.000e-08
Number of eigenvalues below threshold      ... 0
Time for construction of square roots      ...    0.003 sec
Total time needed                          ...    0.139 sec

-------------------
DFT GRID GENERATION
-------------------

General Integration Accuracy     IntAcc      ...  4.340
Radial Grid Type                 RadialGrid  ... Gauss-Chebyshev
Angular Grid (max. acc.)         AngularGrid ... Lebedev-110
Angular grid pruning method      GridPruning ... 3 (G Style)
Weight generation scheme         WeightScheme... Becke
Basis function cutoff            BFCut       ...    1.0000e-11
Integration weight cutoff        WCut        ...    1.0000e-14
Grids for H and He will be reduced by one unit

# of grid points (after initial pruning)     ...  14700 (   0.0 sec)
# of grid points (after weights+screening)   ...  13806 (   0.0 sec)
nearest neighbour list constructed           ...    0.0 sec
Grid point re-assignment to atoms done       ...    0.0 sec
Grid point division into batches done        ...    0.0 sec
Reduced shell lists constructed in    0.0 sec

Total number of grid points                  ...    13806
Total number of batches                      ...      222
Average number of points per batch           ...       62
Average number of grid points per atom       ...     1150
Average number of shells per batch           ...    47.97 (88.83%)
Average number of basis functions per batch  ...   103.90 (91.14%)
Average number of large shells per batch     ...    43.07 (89.79%)
Average number of large basis fcns per batch ...    92.66 (89.18%)
Maximum spatial batch extension              ...   4.21,  3.87,  6.48 au
Average spatial batch extension              ...   0.23,  0.24,  0.27 au

Time for grid setup =    0.054 sec

------------------------------
INITIAL GUESS: MODEL POTENTIAL
------------------------------
Loading Hartree-Fock densities                     ... done
Calculating cut-offs                               ... done
Setting up the integral package                    ... done
Initializing the effective Hamiltonian             ... done
Starting the Coulomb interaction                   ... done (   0.0 sec)
Reading the grid                                   ... done
Mapping shells                                     ... done
Starting the XC term evaluation                    ... done (   0.0 sec)
  promolecular density results
     # of electrons  =     41.993117107
     EX              =    -32.526265633
     EC              =     -1.370970846
     EX+EC           =    -33.897236479
Transforming the Hamiltonian                       ... done (   0.0 sec)
Diagonalizing the Hamiltonian                      ... done (   0.0 sec)
Back transforming the eigenvectors                 ... done (   0.0 sec)
Now organizing SCF variables                       ... done
                      ------------------
                      INITIAL GUESS DONE (   0.2 sec)
                      ------------------
--------------
SCF ITERATIONS
--------------
               ***  Starting incremental Fock matrix formation  ***

                         ----------------------------
                         !        ITERATION     0   !
                         ----------------------------
   Total Energy        :    -231.657515100305 Eh
   Energy Change       :    -231.657515100305 Eh
   MAX-DP              :       0.052353839751
   RMS-DP              :       0.002441768675
   Actual Damping      :       0.7000
   Actual Level Shift  :       0.2500 Eh
   Int. Num. El.       :    41.99702761 (UP=   20.99851381 DN=   20.99851381)
   Exchange            :   -26.58124248
   Correlation         :    -1.64314550


                         ----------------------------
                         !        ITERATION     1   !
                         ----------------------------
   Total Energy        :    -231.710347937949 Eh
   Energy Change       :      -0.052832837644 Eh
   MAX-DP              :       0.034209489141
   RMS-DP              :       0.001768245260
   Actual Damping      :       0.7000
   Actual Level Shift  :       0.2500 Eh
   Int. Num. El.       :    41.99648084 (UP=   20.99824042 DN=   20.99824042)
   Exchange            :   -26.42315717
   Correlation         :    -1.63567018

                               ***Turning on DIIS***

                         ----------------------------
                         !        ITERATION     2   !
                         ----------------------------
   Total Energy        :    -231.733833153435 Eh
   Energy Change       :      -0.023485215485 Eh
   MAX-DP              :       0.064921899979
   RMS-DP              :       0.003163995524
   Actual Damping      :       0.0000
   Actual Level Shift  :       0.2500 Eh
   Int. Num. El.       :    41.99608248 (UP=   20.99804124 DN=   20.99804124)
   Exchange            :   -26.30934317
   Correlation         :    -1.63015233
   DIIS-Error          :       0.029596363415


                         ----------------------------
                         !        ITERATION     3   !
                         ----------------------------
   Total Energy        :    -231.766860704058 Eh
   Energy Change       :      -0.033027550623 Eh
   MAX-DP              :       0.022374709849
   RMS-DP              :       0.001253582512
   Actual Damping      :       0.0000
   Actual Level Shift  :       0.2500 Eh
   Int. Num. El.       :    41.99541699 (UP=   20.99770850 DN=   20.99770850)
   Exchange            :   -26.12131295
   Correlation         :    -1.62097363
   DIIS-Error          :       0.036981793725
   DIIS coefficients:
      0.55745   0.44255


                         ----------------------------
                         !        ITERATION     4   !
                         ----------------------------
   Total Energy        :    -231.775717366148 Eh
   Energy Change       :      -0.008856662090 Eh
   MAX-DP              :       0.008956044350
   RMS-DP              :       0.000329799064
   Actual Damping      :       0.0000
   Actual Level Shift  :       0.2500 Eh
   Int. Num. El.       :    41.99565793 (UP=   20.99782896 DN=   20.99782896)
   Exchange            :   -26.19031777
   Correlation         :    -1.62471702
   DIIS-Error          :       0.008653515894
   DIIS coefficients:
      0.18841  -0.01460   0.82619

                      *** Initiating the SOSCF procedure ***
                           *** Shutting down DIIS ***
                      *** Re-Reading the Fockian *** 
                      *** Removing any level shift *** 

                         ----------------------------
                         !        ITERATION     5   !
                         ----------------------------
   Total Energy        :    -231.776165048955 Eh
   Energy Change       :      -0.000447682807 Eh
   MAX-DP              :       0.002107943543
   RMS-DP              :       0.000127515631
   Orbital gradient    :       0.000717860412
   Orbital Rotation    :       0.000717860412
   Actual Damping      :       0.0000
   Int. Num. El.       :    41.99571005 (UP=   20.99785502 DN=   20.99785502)
   Exchange            :   -26.20759210
   Correlation         :    -1.62557896

               *** Restarting incremental Fock matrix formation ***

                         ----------------------------
                         !        ITERATION     6   !
                         ----------------------------
   Total Energy        :    -231.776204311036 Eh
   Energy Change       :      -0.000039262080 Eh
   MAX-DP              :       0.003141853488
   RMS-DP              :       0.000103045158
   Orbital gradient    :       0.000389665325
   Orbital Rotation    :       0.003114621102
   Actual Damping      :       0.0000
   Int. Num. El.       :    41.99571859 (UP=   20.99785930 DN=   20.99785930)
   Exchange            :   -26.21125499
   Correlation         :    -1.62576119


                         ----------------------------
                         !        ITERATION     7   !
                         ----------------------------
   Total Energy        :    -231.776192321703 Eh
   Energy Change       :       0.000011989333 Eh
   MAX-DP              :       0.002325250831
   RMS-DP              :       0.000073821206
   Orbital gradient    :       0.001238432943
   Orbital Rotation    :       0.004247010725
   Actual Damping      :       0.0000
   Int. Num. El.       :    41.99572022 (UP=   20.99786011 DN=   20.99786011)
   Exchange            :   -26.21390649
   Correlation         :    -1.62590105


                         ----------------------------
                         !        ITERATION     8   !
                         ----------------------------
   Total Energy        :    -231.776208251732 Eh
   Energy Change       :      -0.000015930029 Eh
   MAX-DP              :       0.001077157585
   RMS-DP              :       0.000054295815
   Orbital gradient    :       0.000268198745
   Orbital Rotation    :       0.001333195865
   Actual Damping      :       0.0000
   Int. Num. El.       :    41.99572085 (UP=   20.99786042 DN=   20.99786042)
   Exchange            :   -26.21355831
   Correlation         :    -1.62588902


                         ----------------------------
                         !        ITERATION     9   !
                         ----------------------------
   Total Energy        :    -231.776207258090 Eh
   Energy Change       :       0.000000993642 Eh
   MAX-DP              :       0.000573826174
   RMS-DP              :       0.000029128281
   Orbital gradient    :       0.000331541018
   Orbital Rotation    :       0.000497601907
   Actual Damping      :       0.0000
   Int. Num. El.       :    41.99571364 (UP=   20.99785682 DN=   20.99785682)
   Exchange            :   -26.21128420
   Correlation         :    -1.62576161


                         ----------------------------
                         !        ITERATION    10   !
                         ----------------------------
   Total Energy        :    -231.776210109900 Eh
   Energy Change       :      -0.000002851810 Eh
   MAX-DP              :       0.000190869141
   RMS-DP              :       0.000008262551
   Orbital gradient    :       0.000061230058
   Orbital Rotation    :       0.000213924098
   Actual Damping      :       0.0000
   Int. Num. El.       :    41.99571730 (UP=   20.99785865 DN=   20.99785865)
   Exchange            :   -26.21250783
   Correlation         :    -1.62583080


                         ----------------------------
                         !        ITERATION    11   !
                         ----------------------------
   Total Energy        :    -231.776210041506 Eh
   Energy Change       :       0.000000068394 Eh
   MAX-DP              :       0.000110740377
   RMS-DP              :       0.000005113906
   Orbital gradient    :       0.000084351008
   Orbital Rotation    :       0.000121945397
   Actual Damping      :       0.0000
   Int. Num. El.       :    41.99571796 (UP=   20.99785898 DN=   20.99785898)
   Exchange            :   -26.21273250
   Correlation         :    -1.62584279

                  ***Gradient check signals convergence***
              ***Rediagonalizing the Fockian in SOSCF/NRSCF***

               *****************************************************
               *                     SUCCESS                       *
               *           SCF CONVERGED AFTER  12 CYCLES          *
               *****************************************************

Setting up the final grid:

General Integration Accuracy     IntAcc      ...  4.670
Radial Grid Type                 RadialGrid  ... Gauss-Chebyshev
Angular Grid (max. acc.)         AngularGrid ... Lebedev-302
Angular grid pruning method      GridPruning ... 3 (G Style)
Weight generation scheme         WeightScheme... Becke
Basis function cutoff            BFCut       ...    1.0000e-11
Integration weight cutoff        WCut        ...    1.0000e-14
Grids for H and He will be reduced by one unit

# of grid points (after initial pruning)     ...  57636 (   0.0 sec)
# of grid points (after weights+screening)   ...  53435 (   0.0 sec)
nearest neighbour list constructed           ...    0.0 sec
Grid point re-assignment to atoms done       ...    0.0 sec
Grid point division into batches done        ...    0.2 sec
Reduced shell lists constructed in    0.3 sec

Total number of grid points                  ...    53435
Total number of batches                      ...      843
Average number of points per batch           ...       63
Average number of grid points per atom       ...     4453
Average number of shells per batch           ...    48.35 (89.53%)
Average number of basis functions per batch  ...   104.91 (92.02%)
Average number of large shells per batch     ...    42.00 (86.87%)
Average number of large basis fcns per batch ...    89.44 (85.26%)
Maximum spatial batch extension              ...   4.14,  3.64,  9.83 au
Average spatial batch extension              ...   0.15,  0.16,  0.17 au

Final grid set up in    0.3 sec
Final integration                            ... done (   0.1 sec)
Change in XC energy                          ...    -0.000417939
Integrated number of electrons               ...    41.999956052
Previous integrated no of electrons          ...    41.995717562

----------------
TOTAL SCF ENERGY
----------------

Total Energy       :         -231.77662809 Eh           -6306.96269 eV

Components:
Nuclear Repulsion  :          200.40356087 Eh            5453.25813 eV
Electronic Energy  :         -432.18018897 Eh          -11760.22082 eV
One Electron Energy:         -707.65771009 Eh          -19256.34527 eV
Two Electron Energy:          275.47752113 Eh            7496.12445 eV

Virial components:
Potential Energy   :         -460.80501887 Eh          -12539.14204 eV
Kinetic Energy     :          229.02839077 Eh            6232.17935 eV
Virial Ratio       :            2.01199955


DFT components:
N(Alpha)           :       20.999978026008 electrons
N(Beta)            :       20.999978026008 electrons
N(Total)           :       41.999956052016 electrons
E(X)               :      -26.213008800048 Eh       
E(C)               :       -1.625822684689 Eh       
E(XC)              :      -27.838831484737 Eh       
DFET-embed. en.    :        0.000000000000 Eh       

---------------
SCF CONVERGENCE
---------------

  Last Energy change         ...   -1.1149e-07  Tolerance :   1.0000e-08
  Last MAX-Density change    ...    1.2558e-05  Tolerance :   1.0000e-07
  Last RMS-Density change    ...    5.6302e-07  Tolerance :   5.0000e-09
  Last Orbital Gradient      ...    1.6740e-06  Tolerance :   1.0000e-05
  Last Orbital Rotation      ...    5.3737e-06  Tolerance :   1.0000e-05

             **** THE GBW FILE WAS UPDATED (benzene_0_1_b3lyp_def2-svp.soc.gbw) ****
             **** DENSITY FILE WAS UPDATED (benzene_0_1_b3lyp_def2-svp.soc.scfp) ****
             **** ENERGY FILE WAS UPDATED (benzene_0_1_b3lyp_def2-svp.soc.en.tmp) ****
             **** THE GBW FILE WAS UPDATED (benzene_0_1_b3lyp_def2-svp.soc.gbw) ****
             **** DENSITY FILE WAS UPDATED (benzene_0_1_b3lyp_def2-svp.soc.scfp) ****
----------------
ORBITAL ENERGIES
----------------

  NO   OCC          E(Eh)            E(eV) 
   0   2.0000     -10.198879      -277.5256 
   1   2.0000     -10.198775      -277.5228 
   2   2.0000     -10.195925      -277.4452 
   3   2.0000     -10.193668      -277.3838 
   4   2.0000     -10.193104      -277.3685 
   5   2.0000     -10.193039      -277.3667 
   6   2.0000      -0.836704       -22.7679 
   7   2.0000      -0.740035       -20.1374 
   8   2.0000      -0.712497       -19.3880 
   9   2.0000      -0.592674       -16.1275 
  10   2.0000      -0.579995       -15.7825 
  11   2.0000      -0.503045       -13.6886 
  12   2.0000      -0.476698       -12.9716 
  13   2.0000      -0.437012       -11.8917 
  14   2.0000      -0.426711       -11.6114 
  15   2.0000      -0.403283       -10.9739 
  16   2.0000      -0.380020       -10.3409 
  17   2.0000      -0.346977        -9.4417 
  18   2.0000      -0.318546        -8.6681 
  19   2.0000      -0.249539        -6.7903 
  20   2.0000      -0.181492        -4.9386 
  21   0.0000      -0.098321        -2.6754 
  22   0.0000      -0.002605        -0.0709 
  23   0.0000       0.068963         1.8766 
  24   0.0000       0.074171         2.0183 
  25   0.0000       0.098954         2.6927 
  26   0.0000       0.113195         3.0802 
  27   0.0000       0.125055         3.4029 
  28   0.0000       0.136728         3.7206 
  29   0.0000       0.151723         4.1286 
  30   0.0000       0.236690         6.4407 
  31   0.0000       0.268259         7.2997 
  32   0.0000       0.310750         8.4559 
  33   0.0000       0.317441         8.6380 
  34   0.0000       0.369021        10.0416 
  35   0.0000       0.389843        10.6082 
  36   0.0000       0.402352        10.9486 
  37   0.0000       0.429680        11.6922 
  38   0.0000       0.440590        11.9891 
  39   0.0000       0.469693        12.7810 
  40   0.0000       0.486029        13.2255 
  41   0.0000       0.496947        13.5226 
  42   0.0000       0.509984        13.8774 
  43   0.0000       0.511916        13.9299 
  44   0.0000       0.534225        14.5370 
  45   0.0000       0.543501        14.7894 
  46   0.0000       0.564708        15.3665 
  47   0.0000       0.609058        16.5733 
  48   0.0000       0.621070        16.9002 
  49   0.0000       0.636370        17.3165 
  50   0.0000       0.645096        17.5539 
  51   0.0000       0.652470        17.7546 
  52   0.0000       0.676621        18.4118 
  53   0.0000       0.684575        18.6282 
  54   0.0000       0.705237        19.1905 
  55   0.0000       0.727427        19.7943 
  56   0.0000       0.728449        19.8221 
  57   0.0000       0.738901        20.1065 
  58   0.0000       0.744636        20.2626 
  59   0.0000       0.767104        20.8739 
  60   0.0000       0.779346        21.2071 
  61   0.0000       0.815090        22.1797 
  62   0.0000       0.875599        23.8263 
  63   0.0000       1.055324        28.7168 
  64   0.0000       1.074752        29.2455 
  65   0.0000       1.209642        32.9160 
  66   0.0000       1.248757        33.9804 
  67   0.0000       1.273756        34.6607 
  68   0.0000       1.312188        35.7065 
  69   0.0000       1.382235        37.6125 
  70   0.0000       1.494081        40.6560 
  71   0.0000       1.514123        41.2014 
  72   0.0000       1.603305        43.6281 
  73   0.0000       1.618784        44.0493 
  74   0.0000       1.639717        44.6190 
  75   0.0000       1.651600        44.9423 
  76   0.0000       1.698184        46.2099 
  77   0.0000       1.711508        46.5725 
  78   0.0000       1.739130        47.3241 
  79   0.0000       1.765707        48.0473 
  80   0.0000       1.780928        48.4615 
  81   0.0000       1.788287        48.6618 
  82   0.0000       1.807685        49.1896 
  83   0.0000       1.853596        50.4389 
  84   0.0000       1.868001        50.8309 
  85   0.0000       1.904955        51.8365 
  86   0.0000       1.950087        53.0646 
  87   0.0000       1.971073        53.6356 
  88   0.0000       1.976760        53.7904 
  89   0.0000       1.985286        54.0224 
  90   0.0000       2.003830        54.5270 
  91   0.0000       2.059238        56.0347 
  92   0.0000       2.107383        57.3448 
  93   0.0000       2.139839        58.2280 
  94   0.0000       2.246186        61.1218 
  95   0.0000       2.262396        61.5629 
  96   0.0000       2.310666        62.8764 
  97   0.0000       2.343377        63.7665 
  98   0.0000       2.383368        64.8547 
  99   0.0000       2.389000        65.0080 
 100   0.0000       2.451417        66.7065 
 101   0.0000       2.501331        68.0647 
 102   0.0000       2.521751        68.6203 
 103   0.0000       2.673471        72.7488 
 104   0.0000       2.713742        73.8447 
 105   0.0000       2.721369        74.0522 
 106   0.0000       2.733010        74.3690 
 107   0.0000       2.743624        74.6578 
 108   0.0000       2.829061        76.9827 
 109   0.0000       2.896040        78.8053 
 110   0.0000       2.945551        80.1525 
 111   0.0000       3.102365        84.4196 
 112   0.0000       3.139341        85.4258 
 113   0.0000       3.454641        94.0056 

                    ********************************
                    * MULLIKEN POPULATION ANALYSIS *
                    ********************************

-----------------------
MULLIKEN ATOMIC CHARGES
-----------------------
   0 C :   -0.003283
   1 C :    0.000975
   2 C :   -0.002573
   3 C :   -0.037747
   4 C :   -0.017935
   5 C :   -0.041639
   6 H :    0.002825
   7 H :   -0.009337
   8 H :    0.002223
   9 H :    0.020050
  10 H :    0.065163
  11 H :    0.021279
Sum of atomic charges:    0.0000000

--------------------------------
MULLIKEN REDUCED ORBITAL CHARGES
--------------------------------
  0 C s       :     3.139491  s :     3.139491
      pz      :     1.002788  p :     2.828914
      px      :     0.876328
      py      :     0.949798
      dz2     :     0.003313  d :     0.034879
      dxz     :     0.002780
      dyz     :     0.007225
      dx2y2   :     0.010942
      dxy     :     0.010618
  1 C s       :     3.152996  s :     3.152996
      pz      :     0.997421  p :     2.813890
      px      :     0.928733
      py      :     0.887736
      dz2     :     0.002764  d :     0.032139
      dxz     :     0.005966
      dyz     :     0.002952
      dx2y2   :     0.010266
      dxy     :     0.010190
  2 C s       :     3.140747  s :     3.140747
      pz      :     1.001553  p :     2.826945
      px      :     0.941812
      py      :     0.883580
      dz2     :     0.003398  d :     0.034882
      dxz     :     0.004846
      dyz     :     0.005315
      dx2y2   :     0.010462
      dxy     :     0.010861
  3 C s       :     3.205299  s :     3.205299
      pz      :     0.935943  p :     2.798410
      px      :     0.906615
      py      :     0.955852
      dz2     :     0.002804  d :     0.034038
      dxz     :     0.003797
      dyz     :     0.006733
      dx2y2   :     0.011357
      dxy     :     0.009347
  4 C s       :     3.131317  s :     3.131317
      pz      :     0.918550  p :     2.854329
      px      :     0.909098
      py      :     1.026681
      dz2     :     0.009630  d :     0.032288
      dxz     :     0.005244
      dyz     :     0.002737
      dx2y2   :     0.007309
      dxy     :     0.007369
  5 C s       :     3.205132  s :     3.205132
      pz      :     0.939665  p :     2.802461
      px      :     0.935801
      py      :     0.926995
      dz2     :     0.002727  d :     0.034046
      dxz     :     0.004778
      dyz     :     0.005439
      dx2y2   :     0.009469
      dxy     :     0.011633
  6 H s       :     0.974497  s :     0.974497
      pz      :     0.004600  p :     0.022679
      px      :     0.014003
      py      :     0.004075
  7 H s       :     0.986538  s :     0.986538
      pz      :     0.005524  p :     0.022799
      px      :     0.004653
      py      :     0.012622
  8 H s       :     0.975076  s :     0.975076
      pz      :     0.004660  p :     0.022701
      px      :     0.006877
      py      :     0.011164
  9 H s       :     0.957201  s :     0.957201
      pz      :     0.006280  p :     0.022749
      px      :     0.012900
      py      :     0.003569
 10 H s       :     0.910454  s :     0.910454
      pz      :     0.013641  p :     0.024384
      px      :     0.004734
      py      :     0.006008
 11 H s       :     0.956000  s :     0.956000
      pz      :     0.006048  p :     0.022721
      px      :     0.006539
      py      :     0.010135

------------------------
MULLIKEN OVERLAP CHARGES
------------------------
B(  0-C ,  1-C ) :   0.8406 B(  0-C ,  3-C ) :  -0.1251 B(  0-C ,  5-C ) :   0.8760 
B(  0-C ,  6-H ) :   0.8196 B(  0-C ,  7-H ) :  -0.1155 B(  0-C , 11-H ) :  -0.0837 
B(  1-C ,  2-C ) :   0.8387 B(  1-C ,  4-C ) :  -0.1833 B(  1-C ,  6-H ) :  -0.1000 
B(  1-C ,  7-H ) :   0.8247 B(  1-C ,  8-H ) :  -0.1002 B(  2-C ,  3-C ) :   0.8732 
B(  2-C ,  5-C ) :  -0.1252 B(  2-C ,  7-H ) :  -0.1175 B(  2-C ,  8-H ) :   0.8211 
B(  2-C ,  9-H ) :  -0.0843 B(  3-C ,  4-C ) :   0.7531 B(  3-C ,  8-H ) :  -0.1207 
B(  3-C ,  9-H ) :   0.8147 B(  3-C , 10-H ) :  -0.0653 B(  4-C ,  5-C ) :   0.7546 
B(  4-C ,  9-H ) :  -0.1038 B(  4-C , 10-H ) :   0.7251 B(  4-C , 11-H ) :  -0.1038 
B(  5-C ,  6-H ) :  -0.1195 B(  5-C , 10-H ) :  -0.0647 B(  5-C , 11-H ) :   0.8156 



                     *******************************
                     * LOEWDIN POPULATION ANALYSIS *
                     *******************************

----------------------
LOEWDIN ATOMIC CHARGES
----------------------
   0 C :   -0.044238
   1 C :   -0.031563
   2 C :   -0.043849
   3 C :   -0.014870
   4 C :   -0.056254
   5 C :   -0.016026
   6 H :    0.030389
   7 H :    0.023287
   8 H :    0.030251
   9 H :    0.031831
  10 H :    0.058955
  11 H :    0.032086

-------------------------------
LOEWDIN REDUCED ORBITAL CHARGES
-------------------------------
  0 C s       :     2.872800  s :     2.872800
      pz      :     0.990110  p :     3.080767
      px      :     1.031094
      py      :     1.059563
      dz2     :     0.008282  d :     0.090671
      dxz     :     0.005298
      dyz     :     0.015982
      dx2y2   :     0.029754
      dxy     :     0.031355
  1 C s       :     2.885570  s :     2.885570
      pz      :     0.985069  p :     3.064783
      px      :     1.044377
      py      :     1.035337
      dz2     :     0.005748  d :     0.081209
      dxz     :     0.013383
      dyz     :     0.005973
      dx2y2   :     0.028124
      dxy     :     0.027982
  2 C s       :     2.872800  s :     2.872800
      pz      :     0.990441  p :     3.080360
      px      :     1.046672
      py      :     1.043247
      dz2     :     0.008491  d :     0.090689
      dxz     :     0.010339
      dyz     :     0.011526
      dx2y2   :     0.030882
      dxy     :     0.029452
  3 C s       :     2.894773  s :     2.894773
      pz      :     0.940994  p :     3.034702
      px      :     1.022125
      py      :     1.071583
      dz2     :     0.005762  d :     0.085395
      dxz     :     0.007984
      dyz     :     0.015185
      dx2y2   :     0.030161
      dxy     :     0.026301
  4 C s       :     2.937112  s :     2.937112
      pz      :     0.986102  p :     3.042631
      px      :     1.022531
      py      :     1.033999
      dz2     :     0.022619  d :     0.076510
      dxz     :     0.012632
      dyz     :     0.005186
      dx2y2   :     0.018064
      dxy     :     0.018010
  5 C s       :     2.894714  s :     2.894714
      pz      :     0.938580  p :     3.035917
      px      :     1.036564
      py      :     1.060773
      dz2     :     0.005653  d :     0.085396
      dxz     :     0.009942
      dyz     :     0.012161
      dx2y2   :     0.026807
      dxy     :     0.030832
  6 H s       :     0.902839  s :     0.902839
      pz      :     0.014007  p :     0.066772
      px      :     0.039988
      py      :     0.012776
  7 H s       :     0.908424  s :     0.908424
      pz      :     0.016811  p :     0.068289
      px      :     0.014745
      py      :     0.036734
  8 H s       :     0.902937  s :     0.902937
      pz      :     0.014157  p :     0.066813
      px      :     0.020236
      py      :     0.032420
  9 H s       :     0.898972  s :     0.898972
      pz      :     0.018775  p :     0.069198
      px      :     0.038741
      py      :     0.011681
 10 H s       :     0.867242  s :     0.867242
      pz      :     0.040421  p :     0.073803
      px      :     0.012924
      py      :     0.020458
 11 H s       :     0.898754  s :     0.898754
      pz      :     0.018158  p :     0.069159
      px      :     0.021440
      py      :     0.029561

---------------------------------
LOEWDIN BOND ORDERS (THRESH 0.050000)
---------------------------------
B(  0-C ,  1-C ) :   1.3931 B(  0-C ,  2-C ) :   0.0722 B(  0-C ,  3-C ) :   0.0816 
B(  0-C ,  4-C ) :   0.0922 B(  0-C ,  5-C ) :   1.5842 B(  0-C ,  6-H ) :   0.9296 
B(  0-C ,  7-H ) :   0.0525 B(  0-C , 11-H ) :   0.0600 B(  1-C ,  2-C ) :   1.3941 
B(  1-C ,  3-C ) :   0.0868 B(  1-C ,  4-C ) :   0.2136 B(  1-C ,  5-C ) :   0.0868 
B(  1-C ,  6-H ) :   0.0550 B(  1-C ,  7-H ) :   0.9453 B(  1-C ,  8-H ) :   0.0550 
B(  2-C ,  3-C ) :   1.5830 B(  2-C ,  4-C ) :   0.0923 B(  2-C ,  5-C ) :   0.0815 
B(  2-C ,  7-H ) :   0.0525 B(  2-C ,  8-H ) :   0.9297 B(  2-C ,  9-H ) :   0.0600 
B(  3-C ,  4-C ) :   1.3736 B(  3-C ,  5-C ) :   0.0727 B(  3-C ,  8-H ) :   0.0591 
B(  3-C ,  9-H ) :   0.9426 B(  3-C , 10-H ) :   0.0589 B(  4-C ,  5-C ) :   1.3729 
B(  4-C , 10-H ) :   0.9424 B(  5-C ,  6-H ) :   0.0591 B(  5-C , 10-H ) :   0.0588 
B(  5-C , 11-H ) :   0.9424 

------------------------------------------
LOEWDIN REDUCED ORBITAL POPULATIONS PER MO
-------------------------------------------
THRESHOLD FOR PRINTING IS 0.1%
                      0         1         2         3         4         5   
                 -10.19888 -10.19877 -10.19593 -10.19367 -10.19310 -10.19304
                   2.00000   2.00000   2.00000   2.00000   2.00000   2.00000
                  --------  --------  --------  --------  --------  --------
 0 C  s               0.2       0.0       0.0       3.7      93.0       2.7
 0 C  py              0.1       0.0       0.0       0.1       0.0       0.0
 1 C  s               0.0       0.0       0.0      92.8       2.5       4.3
 2 C  s               0.0       0.2       0.0       3.0       3.9      92.5
 2 C  px              0.0       0.0       0.0       0.1       0.0       0.0
 2 C  py              0.0       0.1       0.0       0.0       0.0       0.0
 3 C  s               0.4      98.9       0.1       0.0       0.0       0.2
 3 C  py              0.0       0.0       0.1       0.0       0.0       0.1
 4 C  s               0.1       0.1      99.5       0.0       0.0       0.0
 4 C  px              0.1       0.0       0.0       0.0       0.0       0.0
 5 C  s              98.9       0.4       0.1       0.0       0.2       0.0
 5 C  px              0.0       0.0       0.1       0.0       0.0       0.0
 5 C  py              0.0       0.0       0.0       0.0       0.1       0.0

                      6         7         8         9        10        11   
                  -0.83670  -0.74003  -0.71250  -0.59267  -0.57999  -0.50305
                   2.00000   2.00000   2.00000   2.00000   2.00000   2.00000
                  --------  --------  --------  --------  --------  --------
 0 C  s              12.5      14.6       4.1       2.6       6.5       0.3
 0 C  pz              0.0       0.1       0.2       0.9       0.2       0.0
 0 C  px              2.6       0.1       0.2       2.7       1.4       5.6
 0 C  py              0.1       2.5       7.5       7.0       5.6       1.0
 0 C  dz2             0.1       0.1       0.0       0.0       0.0       0.0
 0 C  dxy             0.0       0.0       0.2       0.1       0.0       0.0
 1 C  s              11.8       0.0      20.1       7.2       0.0       1.9
 1 C  pz              0.3       0.0       0.1       0.2       0.0       0.6
 1 C  px              0.3       7.3       0.0       0.1      12.6       2.4
 1 C  py              2.1       1.2       0.1       0.9       2.1      15.0
 1 C  dz2             0.1       0.0       0.1       0.0       0.0       0.0
 1 C  dx2y2           0.0       0.1       0.0       0.0       0.1       0.0
 1 C  dxy             0.0       0.1       0.0       0.0       0.1       0.0
 2 C  s              12.5      14.6       4.1       2.6       6.5       0.3
 2 C  pz              0.0       0.1       0.2       1.1       0.2       0.0
 2 C  px              0.8       1.0       4.7       8.9       0.7       1.0
 2 C  py              1.9       1.5       2.9       0.7       6.2       5.6
 2 C  dz2             0.1       0.1       0.0       0.0       0.0       0.0
 2 C  dx2y2           0.0       0.1       0.2       0.1       0.0       0.0
 3 C  s              11.7      14.3       4.9       2.5       7.3       1.4
 3 C  pz              0.4       0.1       0.1       0.9       0.1       1.4
 3 C  px              2.4       0.1       0.2       2.7       1.5       9.3
 3 C  py              0.2       2.6       5.0       8.6       3.3       2.5
 3 C  dxy             0.0       0.1       0.2       0.2       0.0       0.0
 4 C  s              10.8       0.0      17.5      11.3       0.0       0.7
 4 C  pz              0.2       0.0       0.0       1.4       0.0       0.2
 4 C  px              0.4       6.3       0.1       0.1       8.6       0.4
 4 C  py              2.3       1.0       0.4       0.3       1.4       2.7
 4 C  dx2y2           0.0       0.1       0.0       0.0       0.1       0.1
 4 C  dxy             0.0       0.1       0.0       0.0       0.1       0.1
 5 C  s              11.7      14.3       4.9       2.5       7.3       1.4
 5 C  pz              0.3       0.1       0.1       0.7       0.1       1.2
 5 C  px              0.7       1.0       3.6      10.6       0.2       1.3
 5 C  py              2.0       1.7       1.7       1.0       4.6      10.7
 5 C  dx2y2           0.0       0.1       0.2       0.2       0.0       0.0
 6 H  s               1.7       3.2       1.2       2.0       5.0       1.6
 6 H  px              0.1       0.3       0.1       0.1       0.4       0.1
 7 H  s               1.6       0.0       5.4       4.3       0.0      11.4
 7 H  py              0.1       0.0       0.5       0.3       0.0       0.5
 8 H  s               1.7       3.2       1.2       2.0       5.1       1.6
 8 H  px              0.0       0.1       0.1       0.0       0.2       0.0
 8 H  py              0.1       0.3       0.0       0.2       0.2       0.0
 9 H  s               1.6       3.1       1.2       2.4       5.4       8.1
 9 H  px              0.1       0.2       0.1       0.2       0.4       0.3
10 H  s               1.9       0.0       4.3       6.4       0.0       0.4
10 H  pz              0.2       0.0       0.5       0.5       0.0       0.0
11 H  s               1.6       3.1       1.2       2.4       5.4       8.1
11 H  px              0.0       0.1       0.1       0.0       0.2       0.2
11 H  py              0.1       0.2       0.0       0.2       0.2       0.2

                     12        13        14        15        16        17   
                  -0.47670  -0.43701  -0.42671  -0.40328  -0.38002  -0.34698
                   2.00000   2.00000   2.00000   2.00000   2.00000   2.00000
                  --------  --------  --------  --------  --------  --------
 0 C  s               2.2       0.2       0.0       0.1       0.3       0.2
 0 C  pz              0.2       0.7       1.4       1.8       0.5       0.1
 0 C  px             10.6      12.3       0.0       4.1       0.1      10.9
 0 C  py              0.0       0.3      15.2       1.3       8.6       0.9
 0 C  dyz             0.0       0.0       0.0       0.0       0.0       0.1
 0 C  dx2y2           0.1       0.1       0.0       0.2       0.3       0.4
 0 C  dxy             0.1       0.0       0.1       0.2       0.4       0.3
 1 C  s               2.3       0.0       0.0       1.0       0.2       0.0
 1 C  pz              0.0       0.0       0.0       1.7       6.1       0.0
 1 C  px              0.0       2.0      12.6       0.2       3.2       9.9
 1 C  py              0.1       0.3       2.1       1.1      20.1       1.7
 1 C  dx2y2           0.1       0.2       0.0       0.0       0.5       0.2
 1 C  dxy             0.1       0.2       0.0       0.0       0.5       0.2
 2 C  s               2.2       0.2       0.0       0.1       0.3       0.2
 2 C  pz              0.1       0.9       1.6       2.0       0.4       0.0
 2 C  px              5.5       4.6       7.8       0.4       5.1       9.2
 2 C  py              5.1       7.7       7.3       4.9       3.6       2.7
 2 C  dx2y2           0.1       0.0       0.1       0.1       0.4       0.2
 2 C  dxy             0.1       0.1       0.0       0.2       0.3       0.4
 3 C  s               1.7       0.2       0.1       0.0       0.5       0.0
 3 C  pz              3.2       4.3       0.0       1.7       2.0       4.9
 3 C  px              0.1      12.7       0.5       7.7       2.5       2.4
 3 C  py              0.7       0.0      16.7       3.2       3.1       2.8
 3 C  dx2y2           0.2       0.1       0.1       0.0       0.1       0.3
 3 C  dxy             0.0       0.0       0.1       0.3       0.0       0.3
 4 C  s               2.7       0.0       0.0       1.7       0.2       0.0
 4 C  pz             14.0       0.0       0.0      24.6       0.0       0.0
 4 C  px              0.3       5.2      10.1       0.4       0.6      12.1
 4 C  py              1.4       0.9       1.7       1.7       3.6       2.0
 4 C  dz2             0.2       0.0       0.0       0.2       0.1       0.0
 4 C  dxz             0.0       0.0       0.1       0.0       0.0       0.0
 4 C  dx2y2           0.0       0.2       0.0       0.0       0.0       0.1
 4 C  dxy             0.0       0.3       0.0       0.0       0.0       0.1
 5 C  s               1.7       0.2       0.1       0.0       0.5       0.0
 5 C  pz              3.2       3.8       0.0       2.1       1.9       4.5
 5 C  px              0.1       7.2       5.4      10.1       0.0       5.5
 5 C  py              0.8       6.1      11.7       0.6       5.7       0.0
 5 C  dx2y2           0.0       0.0       0.1       0.3       0.0       0.3
 5 C  dxy             0.2       0.1       0.1       0.0       0.1       0.4
 6 H  s               9.4       6.1       0.1       4.8       0.6       8.3
 6 H  px              0.4       0.1       0.0       0.1       0.0       0.0
 6 H  py              0.0       0.0       0.2       0.0       0.1       0.1
 7 H  s               0.8       0.0       0.0       0.0      20.4       0.0
 7 H  px              0.0       0.0       0.2       0.0       0.0       0.1
 7 H  py              0.1       0.0       0.0       0.0       0.2       0.0
 8 H  s               9.4       6.0       0.1       4.9       0.6       8.3
 8 H  px              0.1       0.0       0.2       0.1       0.1       0.0
 8 H  py              0.3       0.1       0.1       0.0       0.0       0.1
 9 H  s               2.9       8.0       1.4       2.6       2.6       4.4
 9 H  px              0.2       0.2       0.0       0.0       0.0       0.0
 9 H  py              0.0       0.0       0.2       0.1       0.0       0.1
10 H  s              13.1       0.0       0.0       9.8       0.6       0.0
10 H  pz              0.6       0.0       0.0       0.1       0.0       0.0
10 H  px              0.0       0.1       0.1       0.0       0.0       0.2
11 H  s               2.9       8.0       1.5       2.6       2.6       4.4
11 H  px              0.1       0.0       0.2       0.0       0.1       0.0
11 H  py              0.1       0.2       0.0       0.1       0.0       0.1

                     18        19        20        21        22        23   
                  -0.31855  -0.24954  -0.18149  -0.09832  -0.00261   0.06896
                   2.00000   2.00000   2.00000   0.00000   0.00000   0.00000
                  --------  --------  --------  --------  --------  --------
 0 C  s               0.1       0.0       0.4       0.6       0.0       1.0
 0 C  pz             20.4      22.6       0.4       0.3      20.0      12.6
 0 C  px              0.7       0.1       0.1       0.2       0.3       1.1
 0 C  py              0.2       1.3       1.2       0.6       1.2       0.0
 0 C  dz2             0.0       0.0       0.1       0.0       0.1       0.1
 0 C  dxz             0.2       0.0       0.0       0.0       0.1       0.5
 0 C  dyz             0.0       0.1       0.4       0.4       0.3       0.0
 0 C  dx2y2           0.1       0.1       0.0       0.3       0.2       0.4
 1 C  s               0.0       0.0       0.2       0.1       0.0       0.1
 1 C  pz             21.2       0.0      19.0      15.5       0.0      14.6
 1 C  px              0.8       0.2       0.2       0.2       0.4       0.7
 1 C  py              3.9       0.0       0.9       0.6       0.1       3.7
 1 C  dz2             0.1       0.0       0.0       0.0       0.0       0.1
 1 C  dxz             0.0       0.5       0.0       0.0       1.1       0.0
 1 C  dyz             0.1       0.1       0.0       0.0       0.2       0.2
 1 C  dx2y2           0.1       0.0       0.0       0.0       0.0       0.3
 1 C  dxy             0.1       0.0       0.0       0.0       0.0       0.3
 2 C  s               0.1       0.0       0.4       0.6       0.0       1.0
 2 C  pz             20.1      22.3       0.4       0.3      19.6      12.4
 2 C  px              0.6       1.4       0.4       0.1       1.7       0.7
 2 C  py              0.6       0.3       0.9       0.7       0.1       0.6
 2 C  dz2             0.0       0.0       0.2       0.1       0.1       0.0
 2 C  dxz             0.1       0.0       0.3       0.3       0.0       0.4
 2 C  dyz             0.1       0.1       0.2       0.1       0.3       0.2
 2 C  dxy             0.1       0.1       0.0       0.3       0.2       0.3
 3 C  s               0.0       0.2       0.3       0.1       0.2       0.4
 3 C  pz              3.8      14.8       9.2      12.5      17.4       4.0
 3 C  px              0.7       6.9       1.3       1.7       5.1       0.4
 3 C  py              2.3       0.5       1.8       0.5       0.4       0.0
 3 C  dz2             0.0       0.0       0.0       0.1       0.1       0.2
 3 C  dxz             0.0       0.0       0.1       0.2       0.0       0.0
 3 C  dyz             0.2       0.3       0.1       0.1       0.5       0.5
 3 C  dx2y2           0.0       0.0       0.5       0.5       0.0       0.0
 4 C  s               0.1       0.0       2.3       1.8       0.0       2.2
 4 C  pz              3.7       0.0       5.1       7.6       0.0       0.6
 4 C  px              0.4       1.2       4.8       3.6       0.5       0.2
 4 C  py              2.0       0.2      30.0      23.0       0.1       0.9
 4 C  dz2             0.3       0.0       0.3       0.6       0.0       1.1
 4 C  dxz             0.0       0.4       0.0       0.0       0.9       0.0
 4 C  dyz             0.1       0.1       0.0       0.1       0.1       0.2
 4 C  dx2y2           0.1       0.0       0.2       0.0       0.0       0.0
 4 C  dxy             0.1       0.0       0.1       0.0       0.0       0.0
 5 C  s               0.0       0.2       0.3       0.1       0.2       0.4
 5 C  pz              3.9      15.6       9.3      12.7      18.2       4.1
 5 C  px              0.4       5.0       0.8       0.7       3.6       0.1
 5 C  py              2.5       1.6       2.2       1.2       1.2       0.3
 5 C  dz2             0.0       0.0       0.0       0.0       0.1       0.2
 5 C  dxz             0.0       0.1       0.1       0.2       0.1       0.4
 5 C  dyz             0.2       0.2       0.0       0.0       0.4       0.1
 5 C  dxy             0.0       0.0       0.5       0.5       0.0       0.0
 6 H  s               0.6       0.3       0.2       0.7       0.1       4.8
 6 H  pz              0.3       0.4       0.0       0.0       0.9       1.0
 6 H  px              0.0       0.0       0.0       0.0       0.1       0.8
 7 H  s               1.4       0.0       0.0       0.0       0.0       2.8
 7 H  pz              0.3       0.0       0.5       0.4       0.0       1.2
 7 H  py              0.0       0.0       0.0       0.0       0.0       0.2
 8 H  s               0.5       0.3       0.2       0.7       0.1       4.8
 8 H  pz              0.3       0.4       0.0       0.0       0.8       1.1
 8 H  px              0.0       0.0       0.0       0.0       0.1       0.3
 8 H  py              0.0       0.0       0.1       0.1       0.0       0.5
 9 H  s               0.1       0.5       0.6       1.0       0.0       0.6
 9 H  pz              0.1       0.3       0.2       0.4       0.8       0.1
 9 H  px              0.0       0.1       0.0       0.0       0.3       0.3
10 H  s               5.7       0.0       1.3       4.8       0.0      10.8
10 H  pz              0.1       0.0       0.0       0.2       0.0       2.0
10 H  px              0.0       0.0       0.1       0.1       0.2       0.0
10 H  py              0.0       0.0       0.8       0.5       0.0       0.0
11 H  s               0.1       0.5       0.6       1.0       0.0       0.6
11 H  pz              0.1       0.3       0.2       0.4       0.8       0.1
11 H  px              0.0       0.1       0.0       0.0       0.2       0.2
11 H  py              0.0       0.0       0.1       0.0       0.1       0.1

                     24        25        26        27        28        29   
                   0.07417   0.09895   0.11320   0.12505   0.13673   0.15172
                   0.00000   0.00000   0.00000   0.00000   0.00000   0.00000
                  --------  --------  --------  --------  --------  --------
 0 C  s               0.9       1.2       0.2       0.3       3.5       3.4
 0 C  pz              4.0       0.0       0.6       3.3       0.0       0.9
 0 C  px              1.9       4.0       0.3       0.1       1.9       1.0
 0 C  py              0.6       0.3       0.1       0.0       0.0       0.7
 0 C  dz2             0.1       0.1       0.0       0.0       0.3       0.4
 0 C  dyz             0.1       0.0       0.0       0.0       0.1       0.0
 0 C  dx2y2           0.5       0.3       0.0       0.0       0.1       0.0
 0 C  dxy             0.0       0.2       0.0       0.0       0.0       0.1
 1 C  s               2.9       0.0       1.5       1.7       0.0       6.0
 1 C  pz              7.4       0.0       0.4       2.5       0.0       0.8
 1 C  px              0.2       0.4       0.5       0.2       0.5       0.3
 1 C  py              1.2       0.1       2.9       1.0       0.1       1.4
 1 C  dz2             0.3       0.0       0.0       0.5       0.0       0.3
 1 C  dyz             0.0       0.0       0.1       0.0       0.0       0.2
 1 C  dx2y2           0.5       0.1       0.0       0.0       0.0       0.1
 1 C  dxy             0.5       0.1       0.0       0.0       0.0       0.1
 2 C  s               0.9       1.1       0.2       0.3       3.6       3.3
 2 C  pz              4.1       0.0       0.6       3.2       0.0       0.9
 2 C  px              0.3       1.5       0.4       0.1       0.9       0.2
 2 C  py              2.2       2.7       0.1       0.0       1.1       1.5
 2 C  dz2             0.1       0.1       0.0       0.0       0.2       0.4
 2 C  dxz             0.2       0.0       0.0       0.0       0.1       0.1
 2 C  dx2y2           0.0       0.2       0.0       0.0       0.0       0.1
 2 C  dxy             0.6       0.3       0.0       0.0       0.1       0.0
 3 C  s               1.6       1.7       3.1       0.5       3.3       0.4
 3 C  pz              0.2       0.7       0.3       2.5       0.1       0.5
 3 C  px              1.3       3.3       1.6       0.9       1.5       0.2
 3 C  py              0.2       0.1       1.2       0.0       0.0       0.1
 3 C  dz2             0.0       0.0       0.1       0.1       0.1       0.1
 3 C  dxz             0.1       0.2       0.6       0.3       0.1       0.0
 3 C  dyz             0.3       0.0       0.0       0.0       0.0       0.0
 3 C  dx2y2           0.3       0.3       0.1       0.0       0.1       0.0
 3 C  dxy             0.1       0.1       0.1       0.0       0.0       0.1
 4 C  s               0.5       0.0       5.3       4.1       0.0       0.4
 4 C  pz              0.5       0.0       1.1       8.0       0.0       0.1
 4 C  px              0.0       0.3       0.1       0.1       0.6       0.1
 4 C  py              0.3       0.0       0.5       0.6       0.1       0.3
 4 C  dx2y2           0.3       0.1       0.4       0.0       0.0       0.0
 4 C  dxy             0.2       0.1       0.4       0.0       0.0       0.0
 5 C  s               1.6       1.6       3.1       0.5       3.3       0.4
 5 C  pz              0.2       0.6       0.3       2.5       0.1       0.5
 5 C  px              0.4       1.3       0.2       0.5       0.9       0.3
 5 C  py              1.1       2.2       2.6       0.4       0.6       0.0
 5 C  dz2             0.0       0.0       0.1       0.0       0.1       0.1
 5 C  dxz             0.0       0.1       0.3       0.2       0.0       0.0
 5 C  dyz             0.3       0.1       0.2       0.1       0.1       0.0
 5 C  dx2y2           0.1       0.1       0.1       0.0       0.0       0.1
 5 C  dxy             0.3       0.4       0.1       0.0       0.1       0.0
 6 H  s               8.6      14.8       1.1       0.0      16.4      16.0
 6 H  pz              0.1       0.1       0.0       0.3       0.0       0.0
 6 H  px              1.7       2.7       0.2       0.0       3.0       3.7
 6 H  py              0.0       0.1       0.2       0.0       0.4       0.0
 7 H  s              15.4       0.0      12.4       8.5       0.0      21.5
 7 H  pz              0.1       0.0       0.3       0.0       0.0       0.7
 7 H  px              0.5       0.0       0.3       0.3       0.4       0.6
 7 H  py              3.0       0.0       1.8       1.6       0.1       3.7
 8 H  s               8.9      14.4       1.2       0.0      16.6      15.7
 8 H  pz              0.1       0.1       0.0       0.3       0.0       0.0
 8 H  px              0.7       0.9       0.0       0.0       0.6       1.9
 8 H  py              1.2       1.8       0.4       0.0       2.8       1.8
 9 H  s               7.2      16.4      14.8       5.2      14.6       3.2
 9 H  pz              0.4       0.6       0.9       0.0       0.7       0.0
 9 H  px              1.1       2.7       2.5       0.9       2.2       0.6
 9 H  py              0.0       0.0       0.0       0.1       0.3       0.3
10 H  s               2.6       0.0      12.5      35.2       0.0       0.4
10 H  pz              0.4       0.0       2.5       6.2       0.0       0.0
10 H  py              0.1       0.0       0.2       0.2       0.0       0.0
11 H  s               7.0      16.0      15.3       5.1      14.7       3.2
11 H  pz              0.4       0.5       0.8       0.0       0.6       0.0
11 H  px              0.4       1.1       1.6       0.2       0.5       0.0
11 H  py              0.7       1.7       1.2       0.8       2.1       0.9

                     30        31        32        33        34        35   
                   0.23669   0.26826   0.31075   0.31744   0.36902   0.38984
                   0.00000   0.00000   0.00000   0.00000   0.00000   0.00000
                  --------  --------  --------  --------  --------  --------
 0 C  s               1.0       5.2       4.2       2.0       5.0      16.4
 0 C  pz              0.3       0.0       0.2       0.1       1.1       0.1
 0 C  px              1.4       3.3       1.8       1.1       1.3       0.2
 0 C  py              2.5       0.4       3.8       8.7       1.5       0.7
 0 C  dz2             0.2       0.3       1.3       0.1       0.0       4.0
 0 C  dxz             0.3       0.0       0.1       0.0       0.1       0.1
 0 C  dyz             0.0       1.1       0.0       0.4       0.0       0.4
 0 C  dx2y2           0.0       1.4       0.6       2.1       0.2       0.2
 0 C  dxy             2.4       0.7       1.8       1.5       0.4       0.1
 1 C  s               4.6       0.0       0.0       7.1       2.1      21.4
 1 C  pz              1.4       0.0       0.0       1.1       0.5       0.4
 1 C  px              0.6      10.1       3.7       0.4       0.3       0.3
 1 C  py              3.7       1.7       0.6       3.0       1.5       2.2
 1 C  dz2             0.5       0.0       0.0       1.3       0.9       0.7
 1 C  dxz             0.1       0.7       0.0       0.0       0.0       0.0
 1 C  dyz             0.2       0.1       0.0       0.0       0.1       0.1
 1 C  dx2y2           0.4       1.8       1.7       2.1       0.1       0.1
 1 C  dxy             0.4       1.9       1.6       2.2       0.1       0.1
 2 C  s               0.9       5.2       4.0       2.1       4.9      16.0
 2 C  pz              0.3       0.0       0.2       0.1       1.1       0.1
 2 C  px              3.2       3.0       2.2       5.7       0.9       0.8
 2 C  py              0.6       0.8       3.1       4.3       1.9       0.1
 2 C  dz2             0.2       0.3       1.2       0.1       0.0       3.7
 2 C  dxz             0.2       0.7       0.0       0.1       0.0       0.6
 2 C  dyz             0.1       0.5       0.1       0.3       0.2       0.0
 2 C  dx2y2           2.3       0.6       1.7       1.8       0.4       0.1
 2 C  dxy             0.0       1.4       0.4       2.1       0.3       0.2
 3 C  s               3.9       0.5       8.4       1.1      12.9       2.5
 3 C  pz              0.4       1.1       2.0       0.4       1.0       0.1
 3 C  px              2.8       0.8       2.8       0.0       0.2       0.6
 3 C  py              3.6       6.1       0.3       7.7       2.9       0.1
 3 C  dz2             0.8       0.0       0.8       0.0       1.4       0.0
 3 C  dxz             0.3       0.0       0.2       0.0       2.3       0.3
 3 C  dyz             0.0       0.9       0.0       0.1       0.4       0.0
 3 C  dx2y2           0.0       0.3       1.2       0.8       0.1       0.0
 3 C  dxy             2.9       2.3       0.1       0.9       1.3       0.0
 4 C  s              10.9       0.0       0.0       3.8       0.6       1.7
 4 C  pz              8.1       0.0       0.0       3.7       1.0       0.1
 4 C  px              0.8      11.9      12.6       0.1       0.1       0.1
 4 C  py              3.9       2.0       2.1       0.1       0.4       0.3
 4 C  dz2             1.5       0.0       0.0       0.2       0.2       0.0
 4 C  dxz             0.1       0.6       0.2       0.0       0.1       0.2
 4 C  dyz             0.6       0.1       0.0       0.0       0.6       1.0
 4 C  dx2y2           0.5       0.4       3.0       0.5       0.0       0.1
 4 C  dxy             0.4       0.4       3.3       0.4       0.0       0.1
 5 C  s               4.0       0.5       8.6       0.8      13.3       2.5
 5 C  pz              0.4       0.9       1.9       0.4       1.0       0.0
 5 C  px              6.0       5.0       1.2       4.0       0.9       0.4
 5 C  py              0.6       1.9       2.0       3.6       2.3       0.4
 5 C  dz2             0.8       0.0       0.8       0.0       1.7       0.0
 5 C  dxz             0.1       0.4       0.2       0.1       0.4       0.2
 5 C  dyz             0.1       0.4       0.0       0.0       2.2       0.1
 5 C  dx2y2           2.9       2.4       0.1       1.0       1.4       0.0
 5 C  dxy             0.0       0.4       1.3       0.7       0.1       0.0
 6 H  s               0.7       1.8       2.1       1.4       0.6       7.3
 6 H  pz              0.1       0.0       0.1       0.0       0.1       0.0
 6 H  px              0.0       0.0       0.2       0.2       0.0       0.2
 6 H  py              1.4       0.3       1.4       3.2       0.0       0.0
 7 H  s               3.0       0.0       0.0       2.7       5.1       1.4
 7 H  px              0.1       3.6       1.8       0.0       0.0       0.0
 7 H  py              0.4       0.6       0.3       0.1       0.0       0.0
 8 H  s               0.7       1.7       2.2       1.3       0.6       7.3
 8 H  pz              0.1       0.0       0.1       0.0       0.1       0.0
 8 H  px              0.5       0.1       1.1       2.5       0.0       0.2
 8 H  py              0.9       0.2       0.3       1.0       0.0       0.0
 9 H  s               0.9       2.0       1.0       0.6       7.4       0.6
 9 H  pz              0.0       0.2       0.0       0.0       0.1       0.0
 9 H  px              0.0       0.0       0.1       0.2       0.0       0.0
 9 H  py              1.6       2.2       0.0       2.2       1.0       0.1
10 H  s               1.5       0.0       0.0       0.7       0.8       1.2
10 H  pz              0.4       0.0       0.0       0.1       1.0       0.2
10 H  px              0.1       1.6       0.9       0.0       0.1       0.1
10 H  py              0.6       0.3       0.1       0.0       0.4       0.6
11 H  s               0.9       2.1       1.0       0.6       7.5       0.7
11 H  pz              0.0       0.2       0.0       0.0       0.1       0.0
11 H  px              0.9       1.3       0.1       1.9       0.3       0.0
11 H  py              0.7       0.9       0.0       0.5       0.7       0.1

                     36        37        38        39        40        41   
                   0.40235   0.42968   0.44059   0.46969   0.48603   0.49695
                   0.00000   0.00000   0.00000   0.00000   0.00000   0.00000
                  --------  --------  --------  --------  --------  --------
 0 C  s               4.0       0.7       7.1       1.0       3.0       0.1
 0 C  pz              0.5       1.8       1.1       2.7       0.1      13.5
 0 C  px              0.4       0.2       0.8       0.7       2.6       0.1
 0 C  py              6.1      10.8       4.2       4.0       3.2       4.7
 0 C  dz2             0.8       0.3       0.9       0.3       1.2       0.0
 0 C  dxz             0.1       0.1       0.0       0.0       0.0       0.1
 0 C  dyz             0.1       0.0       0.2       0.1       0.0       0.0
 0 C  dx2y2           0.0       0.2       0.1       0.5       0.4       0.1
 0 C  dxy             0.6       1.1       1.1       0.0       0.9       0.0
 1 C  s               0.0       0.0       0.0      10.8       3.6       1.2
 1 C  pz              0.0       0.0       0.0       2.8       0.4      17.0
 1 C  px              7.2      11.9       2.7       0.0       0.1       0.4
 1 C  py              1.2       1.9       0.4       0.2       0.7       1.8
 1 C  dz2             0.0       0.0       0.0       5.5       1.0       0.5
 1 C  dxz             0.3       0.1       0.0       0.3       0.1       0.1
 1 C  dyz             0.0       0.0       0.0       1.6       0.3       0.4
 1 C  dx2y2           0.4       0.6       0.3       0.4       0.4       0.1
 1 C  dxy             0.4       0.7       0.4       0.3       0.4       0.1
 2 C  s               4.6       0.7       7.2       1.0       2.9       0.1
 2 C  pz              0.6       1.8       1.1       2.7       0.2      13.1
 2 C  px              4.2       6.5       3.9       2.5       5.7       3.2
 2 C  py              2.4       4.2       1.0       2.3       0.1       2.1
 2 C  dz2             0.8       0.2       0.9       0.3       1.2       0.0
 2 C  dxz             0.3       0.1       0.1       0.0       0.0       0.0
 2 C  dyz             0.0       0.1       0.1       0.2       0.1       0.1
 2 C  dx2y2           0.6       1.1       1.1       0.0       0.9       0.0
 2 C  dxy             0.0       0.2       0.1       0.5       0.4       0.1
 3 C  s               6.1       0.9       5.0       7.7       1.0       1.4
 3 C  pz              2.0       1.1       0.3       2.8       1.4       7.2
 3 C  px              0.1       0.1       0.4       2.7       3.0       0.2
 3 C  py             10.2      10.4       3.6       0.3       6.5       0.2
 3 C  dz2             1.6       0.0       0.6       0.1       0.0       0.2
 3 C  dxz             0.0       0.0       2.2       0.0       0.0       0.0
 3 C  dyz             0.8       0.0       0.2       0.0       0.1       0.2
 3 C  dx2y2           1.1       0.2       0.3       0.3       1.5       0.2
 3 C  dxy             0.5       1.1       0.0       0.0       0.0       0.0
 4 C  s               0.0       0.0       0.0       2.3      12.1       2.4
 4 C  pz              0.0       0.0       0.0       2.0       2.4       2.1
 4 C  px              2.1      13.2       7.2       0.1       0.3       0.4
 4 C  py              0.4       2.1       1.2       0.4       1.8       2.0
 4 C  dz2             0.0       0.0       0.0       0.9       0.0       0.9
 4 C  dxz             1.4       0.4       0.8       0.0       0.0       0.1
 4 C  dyz             0.2       0.1       0.1       0.3       0.4       0.4
 4 C  dx2y2           0.0       1.2       0.2       0.2       1.4       0.3
 4 C  dxy             0.0       1.2       0.1       0.2       1.3       0.3
 5 C  s               5.8       0.9       4.9       7.7       1.0       1.3
 5 C  pz              2.1       1.0       0.3       3.1       1.6       7.3
 5 C  px              4.1       6.0       2.5       1.0       8.4       0.1
 5 C  py              5.8       4.7       1.6       1.8       0.8       0.3
 5 C  dz2             1.6       0.0       0.8       0.1       0.0       0.2
 5 C  dxz             0.3       0.0       1.7       0.1       0.0       0.1
[...]
 STATE 34:  49741.12
                      0.95727      0.91910      0.33544 : 9     1     0
                      0.02136     -0.10819      0.09828 : 9     1    -1
                      0.02136      0.01945      0.14486 : 9     1     1
 STATE 35:  50858.49
                      0.63041      0.30828     -0.73169 : 10     1     0
                      0.18479      0.30026      0.30763 : 10     1    -1
                      0.18479      0.42987      0.00000 : 10     1     1
 STATE 36:  50858.49
                      0.49991     -0.51162     -0.48801 : 10     1    -1
                      0.49991      0.70704      0.00000 : 10     1     1
 STATE 37:  50858.50
                      0.36940      0.22003     -0.56656 : 10     1     0
                      0.31530     -0.41434     -0.37898 : 10     1    -1
                      0.31530     -0.56152      0.00000 : 10     1     1
 STATE 38:  53405.77
                      1.00000      0.93180      0.36298 : 8     0     0
 STATE 39:  54435.66
                      1.00000      0.22863     -0.97351 : 9     0     0
 STATE 40:  56562.15
                      1.00000      0.93229      0.36172 : 10     0     0

-----------------------------
TD-DFT/TDA-EXCITATION SPECTRA
-----------------------------

Center of mass = ( -0.0441,  0.1218, -0.0250)
Calculating the Dipole integrals                  ... done
Transforming integrals                            ... done
Calculating the Linear Momentum integrals         ... done
Transforming integrals                            ... done
Calculating angular momentum integrals            ... done
Transforming integrals                            ... done

-----------------------------------------------------------------------------
         ABSORPTION SPECTRUM VIA TRANSITION ELECTRIC DIPOLE MOMENTS
-----------------------------------------------------------------------------
State   Energy    Wavelength  fosc         T2        TX        TY        TZ  
        (cm-1)      (nm)                 (au**2)    (au)      (au)      (au) 
-----------------------------------------------------------------------------
   1   19873.6    503.2   0.061497048   1.01872  -0.37953   0.93523  -0.00379
   2   25503.6    392.1   0.007605567   0.09818  -0.28937  -0.12003  -0.00587
   3   34656.8    288.5   0.116936351   1.11080  -0.97675  -0.39541  -0.02014
   4   40598.8    246.3   0.014721305   0.11937  -0.12943   0.31941   0.02442
   5   45352.7    220.5   0.034567015   0.25092  -0.46446  -0.18739  -0.00918
   6   47625.1    210.0   0.000387486   0.00268  -0.01729   0.04039  -0.02735
   7   49149.3    203.5   0.013334572   0.08932  -0.10611   0.26291   0.09453
   8   52968.8    188.8   0.006806508   0.04230   0.07278  -0.17576  -0.07820
   9   53998.7    185.2   0.034202558   0.20852   0.42409   0.16913   0.00794
  10   56125.2    178.2   0.071993443   0.42229   0.24220  -0.60275  -0.01810
  11    -436.9   -22887.9   spin forbidden (mult=3)
  12   19286.9    518.5   spin forbidden (mult=3)
  13   26668.2    375.0   spin forbidden (mult=3)
  14   33545.2    298.1   spin forbidden (mult=3)
  15   36108.3    276.9   spin forbidden (mult=3)
  16   40971.1    244.1   spin forbidden (mult=3)
  17   42717.9    234.1   spin forbidden (mult=3)
  18   47158.9    212.0   spin forbidden (mult=3)
  19   49304.1    202.8   spin forbidden (mult=3)
  20   50421.5    198.3   spin forbidden (mult=3)

-----------------------------------------------------------------------------
         ABSORPTION SPECTRUM VIA TRANSITION VELOCITY DIPOLE MOMENTS
-----------------------------------------------------------------------------
State   Energy    Wavelength   fosc        P2         PX        PY        PZ  
        (cm-1)      (nm)                 (au**2)     (au)      (au)      (au) 
-----------------------------------------------------------------------------
   1   19873.6    503.2   0.314094857   0.04266  -0.07739   0.19144  -0.00507
   2   25503.6    392.1   0.013488429   0.00235  -0.04475  -0.01863  -0.00109
   3   34656.8    288.5   0.028858927   0.00684  -0.07667  -0.03089  -0.00186
   4   40598.8    246.3   0.002883304   0.00080  -0.01056   0.02573   0.00517
   5   45352.7    220.5   0.002167485   0.00067  -0.02404  -0.00966  -0.00068
   6   47625.1    210.0   0.000516497   0.00017   0.00405  -0.01049   0.00646
   7   49149.3    203.5   0.003088925   0.00104   0.01173  -0.02949  -0.00551
   8   52968.8    188.8   0.004971514   0.00180   0.00384  -0.01179   0.04057
   9   53998.7    185.2   0.015327530   0.00566  -0.06992  -0.02769  -0.00105
  10   56125.2    178.2   0.016797069   0.00644  -0.02625   0.06395   0.04080
  11    -436.9   -22887.9   spin forbidden (mult=3)
  12   19286.9    518.5   spin forbidden (mult=3)
  13   26668.2    375.0   spin forbidden (mult=3)
  14   33545.2    298.1   spin forbidden (mult=3)
  15   36108.3    276.9   spin forbidden (mult=3)
  16   40971.1    244.1   spin forbidden (mult=3)
  17   42717.9    234.1   spin forbidden (mult=3)
  18   47158.9    212.0   spin forbidden (mult=3)
  19   49304.1    202.8   spin forbidden (mult=3)
  20   50421.5    198.3   spin forbidden (mult=3)

-------------------------------------------------------------------
                             CD SPECTRUM
-------------------------------------------------------------------
State  Energy     Wavelength     R         MX        MY        MZ   
       (cm-1)       (nm)     (1e40*cgs)   (au)      (au)      (au)  
-------------------------------------------------------------------
   1   19873.6    503.2     -0.14909  -0.19265  -0.07853  -0.00351
   2   25503.6    392.1     -0.06558   0.00573  -0.01064  -0.04148
   3   34656.8    288.5      0.23452  -0.02860   0.08757  -0.35710
   4   40598.8    246.3      0.22426   0.20797   0.08540   0.00475
   5   45352.7    220.5     -0.36769   0.08332  -0.18867  -0.27942
   6   47625.1    210.0     -0.11725   0.19035   0.07691   0.00231
   7   49149.3    203.5     -0.09956  -0.07535  -0.03068  -0.00148
   8   52968.8    188.8      0.00759   0.25629   0.10397   0.00462
   9   53998.7    185.2      0.52035   0.01318  -0.02696   0.00925
  10   56125.2    178.2     -0.40723   0.09112   0.03800   0.00166
  11    -436.9   -22887.9 spin forbidden
  12   19286.9    518.5 spin forbidden
  13   26668.2    375.0 spin forbidden
  14   33545.2    298.1 spin forbidden
  15   36108.3    276.9 spin forbidden
  16   40971.1    244.1 spin forbidden
  17   42717.9    234.1 spin forbidden
  18   47158.9    212.0 spin forbidden
  19   49304.1    202.8 spin forbidden
  20   50421.5    198.3 spin forbidden

-------------------------------------------
SOC CORRECTED TD-DFT/TDA-EXCITATION SPECTRA
--------------------------------------------

-----------------------------------------------------------------------------
  SOC CORRECTED ABSORPTION SPECTRUM VIA TRANSITION ELECTRIC DIPOLE MOMENTS*  
-----------------------------------------------------------------------------
State   Energy  Wavelength   fosc         T2         TX        TY        TZ  
        (cm-1)    (nm)                  (au**2)     (au)      (au)      (au) 
-----------------------------------------------------------------------------
   1       0.0   206998792.4   0.000000000   0.00000   0.00000   0.00000   0.00000
   2       0.0   205716777.7   0.000000000   0.00000   0.00000   0.00000   0.00000
   3     437.0   22882.9   0.000000000   0.00000   0.00019   0.00049   0.00016
   4   19723.8    507.0   0.000000004   0.00000   0.00025   0.00010   0.00000
   5   19723.8    507.0   0.007190044   0.12001   0.32095   0.13020   0.00686
   6   19723.8    507.0   0.000000019   0.00000   0.00050   0.00023   0.00008
   7   20310.6    492.4   0.000007025   0.00011   0.00401   0.00989   0.00005
   8   25940.5    385.5   0.000000790   0.00001   0.00292   0.00121   0.00006
   9   27105.2    368.9   0.062111856   0.75439   0.80433   0.32735   0.01711
  10   27105.2    368.9   0.000000761   0.00001   0.00281   0.00116   0.00003
  11   27105.2    368.9   0.000000948   0.00001   0.00314   0.00129   0.00008
  12   33982.1    294.3   0.000000022   0.00000   0.00021   0.00041   0.00006
  13   33982.1    294.3   0.000000178   0.00000   0.00097   0.00087   0.00017
  14   33982.1    294.3   0.038951195   0.37735   0.22726   0.56431   0.08519
  15   35093.8    285.0   0.000013193   0.00012   0.01031   0.00417   0.00021
  16   36545.3    273.6   0.000001271   0.00001   0.00137   0.00309   0.00015
  17   36545.3    273.6   0.006713226   0.06047   0.09248   0.22763   0.01048
  18   36545.3    273.6   0.000000013   0.00000   0.00009   0.00033   0.00001
  19   41035.7    243.7   0.000001549   0.00001   0.00132   0.00326   0.00024
  20   41408.1    241.5   0.010851125   0.08627   0.27104   0.11306   0.00539
  21   41408.1    241.5   0.000000120   0.00000   0.00022   0.00094   0.00016
  22   41408.1    241.5   0.000000026   0.00000   0.00045   0.00003   0.00002
  23   43154.8    231.7   0.000000591   0.00000   0.00085   0.00194   0.00015
  24   43154.8    231.7   0.210810348   1.60819   0.47671   1.17186   0.08772
  25   43154.8    231.7   0.000000109   0.00000   0.00008   0.00090   0.00005
  26   45789.6    218.4   0.000003890   0.00003   0.00490   0.00198   0.00010
  27   47595.8    210.1   0.003872484   0.02679   0.05069   0.12482   0.09293
  28   47595.8    210.1   0.000010213   0.00007   0.00264   0.00640   0.00477
  29   47595.8    210.1   0.000010156   0.00007   0.00257   0.00640   0.00476
  30   48062.0    208.1   0.000000027   0.00000   0.00008   0.00016   0.00039
  31   49586.3    201.7   0.000000826   0.00001   0.00080   0.00200   0.00092
  32   49741.1    201.0   0.000005697   0.00004   0.00246   0.00560   0.00060
  33   49741.1    201.0   0.065715650   0.43494   0.24802   0.60761   0.06508
  34   49741.1    201.0   0.000000009   0.00000   0.00010   0.00023   0.00002
  35   50858.5    196.6   0.000000002   0.00000   0.00009   0.00005   0.00000
  36   50858.5    196.6   0.000009145   0.00006   0.00627   0.00445   0.00000
  37   50858.5    196.6   0.000000004   0.00000   0.00006   0.00015   0.00002
  38   53405.8    187.2   0.000000866   0.00001   0.00083   0.00200   0.00081
  39   54435.7    183.7   0.000003947   0.00002   0.00454   0.00181   0.00009
  40   56562.1    176.8   0.000008327   0.00005   0.00259   0.00646   0.00021

-----------------------------------------------------------------------------
  SOC CORRECTED ABSORPTION SPECTRUM VIA TRANSITION VELOCITY DIPOLE MOMENTS*  
-----------------------------------------------------------------------------
State   Energy  Wavelength   fosc         P2         PX        PY        PZ  
        (cm-1)    (nm)                  (au**2)     (au)      (au)      (au) 
-----------------------------------------------------------------------------
   1       0.0   206998792.4   0.000267389   0.00000   0.00001   0.00000   0.00000
   2       0.0   205716777.7   0.000233668   0.00000   0.00001   0.00000   0.00000
   3     437.0   22882.9   0.000000034   0.00000   0.00000   0.00001   0.00000
   4   19723.8    507.0   0.000000008   0.00000   0.00000   0.00003   0.00000
   5   19723.8    507.0   0.001143383   0.00015   0.01153   0.00460   0.00020
   6   19723.8    507.0   0.000000005   0.00000   0.00003   0.00001   0.00000
   7   20310.6    492.4   0.000033535   0.00000   0.00081   0.00200   0.00005
   8   25940.5    385.5   0.000001517   0.00000   0.00048   0.00020   0.00001
   9   27105.2    368.9   0.031941112   0.00592   0.07121   0.02904   0.00145
  10   27105.2    368.9   0.000000392   0.00000   0.00025   0.00011   0.00000
  11   27105.2    368.9   0.000000488   0.00000   0.00028   0.00011   0.00001
  12   33982.1    294.3   0.000000015   0.00000   0.00004   0.00005   0.00001
  13   33982.1    294.3   0.000000109   0.00000   0.00011   0.00011   0.00002
  14   33982.1    294.3   0.025272062   0.00587   0.02833   0.07036   0.01076
  15   35093.8    285.0   0.000003104   0.00000   0.00080   0.00032   0.00002
  16   36545.3    273.6   0.000000591   0.00000   0.00016   0.00035   0.00002
  17   36545.3    273.6   0.003116807   0.00078   0.01051   0.02581   0.00129
  18   36545.3    273.6   0.000000007   0.00000   0.00003   0.00003   0.00000
  19   41035.7    243.7   0.000000364   0.00000   0.00012   0.00029   0.00006
  20   41408.1    241.5   0.011572591   0.00328   0.05286   0.02191   0.00107
  21   41408.1    241.5   0.000000104   0.00000   0.00005   0.00016   0.00002
  22   41408.1    241.5   0.000000029   0.00000   0.00009   0.00001   0.00001
  23   43154.8    231.7   0.000000371   0.00000   0.00014   0.00030   0.00001
  24   43154.8    231.7   0.132103926   0.03896   0.07453   0.18269   0.00555
  25   43154.8    231.7   0.000000077   0.00000   0.00003   0.00015   0.00000
  26   45789.6    218.4   0.000000234   0.00000   0.00025   0.00010   0.00001
  27   47595.8    210.1   0.006339938   0.00206   0.01430   0.03535   0.02466
  28   47595.8    210.1   0.000016722   0.00001   0.00074   0.00181   0.00127
  29   47595.8    210.1   0.000016625   0.00001   0.00073   0.00181   0.00126
  30   48062.0    208.1   0.000000036   0.00000   0.00002   0.00005   0.00010
  31   49586.3    201.7   0.000000085   0.00000   0.00006   0.00015   0.00004
  32   49741.1    201.0   0.000004683   0.00000   0.00052   0.00114   0.00019
  33   49741.1    201.0   0.053984668   0.01835   0.05073   0.12401   0.01999
  34   49741.1    201.0   0.000000008   0.00000   0.00002   0.00005   0.00001
  35   50858.5    196.6   0.000000000   0.00000   0.00001   0.00001   0.00000
  36   50858.5    196.6   0.000002401   0.00000   0.00064   0.00065   0.00004
  37   50858.5    196.6   0.000000004   0.00000   0.00001   0.00003   0.00001
  38   53405.8    187.2   0.000000528   0.00000   0.00003   0.00010   0.00043
  39   54435.7    183.7   0.000001715   0.00000   0.00074   0.00029   0.00001
  40   56562.1    176.8   0.000001973   0.00000   0.00029   0.00070   0.00043

-------------------------------------------------------------------
                    SOC CORRECTED CD SPECTRUM*                     
-------------------------------------------------------------------
State   Energy Wavelength       R         MX        MY        MZ   
        (cm-1)   (nm)       (1e40*sgs)   (au)      (au)      (au)  
-------------------------------------------------------------------
   1       0.0   206998792.4      0.00000   0.00000   0.00001   0.00022
   2       0.0   205716777.7      0.00000   0.00000   0.00001   0.00004
   3     437.0   22882.9      0.00000   0.00001   0.00000   0.00000
   4   19723.8    507.0      0.00000   0.00000   0.00001   0.00024
   5   19723.8    507.0      0.02220   0.01131   0.01196   0.30891
   6   19723.8    507.0      0.00002   0.00001   0.00002   0.00050
   7   20310.6    492.4      0.00002   0.00203   0.00083   0.00004
   8   25940.5    385.5      0.00001   0.00006   0.00011   0.00034
   9   27105.2    368.9      0.21326   0.02438   0.03439   0.51441
  10   27105.2    368.9      0.00004   0.00010   0.00012   0.00180
  11   27105.2    368.9      0.00000   0.00010   0.00013   0.00201
  12   33982.1    294.3      0.00001   0.00004   0.00004   0.00013
  13   33982.1    294.3      0.00002   0.00010   0.00009   0.00008
  14   33982.1    294.3      0.05471   0.06157   0.02486   0.00179
  15   35093.8    285.0      0.00003   0.00030   0.00092   0.00377
  16   36545.3    273.6      0.00001   0.00058   0.00026   0.00012
  17   36545.3    273.6      0.01093   0.04286   0.01738   0.00140
  18   36545.3    273.6      0.00000   0.00006   0.00004   0.00012
  19   41035.7    243.7      0.00002   0.00217   0.00089   0.00005
  20   41408.1    241.5      0.11029   0.00883   0.03804   0.31066
  21   41408.1    241.5      0.00009   0.00005   0.00010   0.00059
  22   41408.1    241.5      0.00000   0.00000   0.00006   0.00043
  23   43154.8    231.7      0.00001   0.00005   0.00001   0.00001
  24   43154.8    231.7      0.26715   0.02692   0.01055   0.00116
  25   43154.8    231.7      0.00004   0.00001   0.00006   0.00044
  26   45789.6    218.4      0.00004   0.00088   0.00198   0.00297
  27   47595.8    210.1      0.01182   0.02568   0.01051   0.00016
  28   47595.8    210.1      0.00004   0.00132   0.00054   0.00003
  29   47595.8    210.1      0.00016   0.00132   0.00054   0.00006
  30   48062.0    208.1      0.00001   0.00197   0.00080   0.00002
  31   49586.3    201.7      0.00001   0.00082   0.00033   0.00002
  32   49741.1    201.0      0.00007   0.00024   0.00005   0.00028
  33   49741.1    201.0      0.01069   0.02491   0.01008   0.00049
  34   49741.1    201.0      0.00000   0.00001   0.00001   0.00004
  35   50858.5    196.6      0.00000   0.00004   0.00009   0.00006
  36   50858.5    196.6      0.01226   0.00389   0.01132   0.00756
  37   50858.5    196.6      0.00000   0.00001   0.00001   0.00000
  38   53405.8    187.2      0.00000   0.00270   0.00109   0.00005
  39   54435.7    183.7      0.00006   0.00014   0.00028   0.00014
  40   56562.1    176.8      0.00005   0.00095   0.00040   0.00002

*The X,Y and Z components are the absolute values of the complex numbers

Total run time:       19.423 sec

           *** ORCA-CIS/TD-DFT FINISHED WITHOUT ERROR ***

---------------------------
SOC CIS/TD-DFT TOTAL ENERGY
---------------------------

    E(SCF)        =   -231.776628092 Eh
    E(SOC CIS)    =     -0.001990726 Eh (SOC Root  1)
    ----------------------------- ---------
    E(tot)        =   -231.778618818 Eh


-------------------------   --------------------
FINAL SINGLE POINT ENERGY      -231.778618818468
-------------------------   --------------------


                            ***************************************
                            *     ORCA property calculations      *
                            ***************************************

                                    ---------------------
                                    Active property flags
                                    ---------------------
   (+) Dipole Moment


------------------------------------------------------------------------------
                       ORCA ELECTRIC PROPERTIES CALCULATION
------------------------------------------------------------------------------

Dipole Moment Calculation                       ... on
Quadrupole Moment Calculation                   ... off
Polarizability Calculation                      ... off
GBWName                                         ... benzene_0_1_b3lyp_def2-svp.soc.gbw
Electron density file                           ... benzene_0_1_b3lyp_def2-svp.soc.scfp
The origin for moment calculation is the CENTER OF MASS  = (-0.044077,  0.121759 -0.025013)

-------------
DIPOLE MOMENT
-------------
                                X             Y             Z
Electronic contribution:     -0.25171       0.62067      -0.17341
Nuclear contribution   :      0.34538      -0.85939       0.16882
                        -----------------------------------------
Total Dipole Moment    :      0.09367      -0.23872      -0.00459
                        -----------------------------------------
Magnitude (a.u.)       :      0.25648
Magnitude (Debye)      :      0.65192



--------------------
Rotational spectrum 
--------------------
 
Rotational constants in cm-1:     0.197288     0.169697     0.096512 
Rotational constants in MHz :  5914.548078  5087.393068  2893.356668 

 Dipole components along the rotational axes: 
x,y,z [a.u.] :    -0.003333    -0.254886    -0.028369 
x,y,z [Debye]:    -0.008471    -0.647869    -0.072108 

 

Timings for individual modules:

Sum of individual times         ...       34.121 sec (=   0.569 min)
GTO integral calculation        ...        5.764 sec (=   0.096 min)  16.9 %
SCF iterations                  ...        6.892 sec (=   0.115 min)  20.2 %
CIS module                      ...       21.465 sec (=   0.358 min)  62.9 %
                             ****ORCA TERMINATED NORMALLY****
TOTAL RUN TIME: 0 days 0 hours 0 minutes 36 seconds 593 msec
