
                                 *****************
                                 * O   R   C   A *
                                 *****************

           --- An Ab Initio, DFT and Semiempirical electronic structure package ---

                  #######################################################
                  #                        -***-                        #
                  #          Department of theory and spectroscopy      #
                  #               Directorship: Frank Neese             #
                  #        Max Planck Institute fuer Kohlenforschung    #
                  #                Kaiser Wilhelm Platz 1               #
                  #                 D-45470 Muelheim/Ruhr               #
                  #                      Germany                        #
                  #                                                     #
                  #                  All rights reserved                #
                  #                        -***-                        #
                  #######################################################


                         Program Version 4.2.0 -  RELEASE  -


 With contributions from (in alphabetic order):
   Daniel Aravena         : Magnetic Suceptibility
   Michael Atanasov       : Ab Initio Ligand Field Theory (pilot matlab implementation)
   Alexander A. Auer      : GIAO ZORA, VPT2
   Ute Becker             : Parallelization
   Giovanni Bistoni       : ED, misc. LED, open-shell LED, HFLED
   Martin Brehm           : Molecular dynamics
   Dmytro Bykov           : SCF Hessian
   Vijay G. Chilkuri      : MRCI spin determinant printing, contributions to CSF-ICE
   Dipayan Datta          : RHF DLPNO-CCSD density
   Achintya Kumar Dutta   : EOM-CC, STEOM-CC
   Dmitry Ganyushin       : Spin-Orbit,Spin-Spin,Magnetic field MRCI
   Miquel Garcia          : C-PCM Hessian, Gaussian charge scheme
   Yang Guo               : DLPNO-NEVPT2, CIM, IAO-localization
   Andreas Hansen         : Spin unrestricted coupled pair/coupled cluster methods
   Benjamin Helmich-Paris : CASSCF linear response (MC-RPA)
   Lee Huntington         : MR-EOM, pCC
   Robert Izsak           : Overlap fitted RIJCOSX, COSX-SCS-MP3, EOM
   Christian Kollmar      : KDIIS, OOCD, Brueckner-CCSD(T), CCSD density
   Simone Kossmann        : Meta GGA functionals, TD-DFT gradient, OOMP2, MP2 Hessian
   Martin Krupicka        : AUTO-CI
   Lucas Lang             : DCDCAS
   Dagmar Lenk            : GEPOL surface, SMD
   Dimitrios Liakos       : Extrapolation schemes; Compound Job, initial MDCI parallelization
   Dimitrios Manganas     : Further ROCIS development; embedding schemes
   Dimitrios Pantazis     : SARC Basis sets
   Taras Petrenko         : DFT Hessian,TD-DFT gradient, ASA, ECA, R-Raman, ABS, FL, XAS/XES, NRVS
   Peter Pinski           : DLPNO-MP2, DLPNO-MP2 Gradient
   Christoph Reimann      : Effective Core Potentials
   Marius Retegan         : Local ZFS, SOC
   Christoph Riplinger    : Optimizer, TS searches, QM/MM, DLPNO-CCSD(T), (RO)-DLPNO pert. Triples
   Tobias Risthaus        : Range-separated hybrids, TD-DFT gradient, RPA, STAB
   Michael Roemelt        : Original ROCIS implementation
   Masaaki Saitow         : Open-shell DLPNO-CCSD energy and density
   Barbara Sandhoefer     : DKH picture change effects
   Avijit Sen             : IP-ROCIS
   Kantharuban Sivalingam : CASSCF convergence, NEVPT2, FIC-MRCI
   Bernardo de Souza      : ESD, SOC TD-DFT
   Georgi Stoychev        : AutoAux, RI-MP2 NMR
   Willem Van den Heuvel  : Paramagnetic NMR
   Boris Wezisla          : Elementary symmetry handling
   Frank Wennmohs         : Technical directorship


 We gratefully acknowledge several colleagues who have allowed us to
 interface, adapt or use parts of their codes:
   Stefan Grimme, W. Hujo, H. Kruse,             : VdW corrections, initial TS optimization,
                  C. Bannwarth                     DFT functionals, gCP, sTDA/sTD-DF
   Ed Valeev, F. Pavosevic, A. Kumar             : LibInt (2-el integral package), F12 methods
   Garnet Chan, S. Sharma, J. Yang, R. Olivares  : DMRG
   Ulf Ekstrom                                   : XCFun DFT Library
   Mihaly Kallay                                 : mrcc  (arbitrary order and MRCC methods)
   Andreas Klamt, Michael Diedenhofen            : otool_cosmo (COSMO solvation model)
   Jiri Pittner, Ondrej Demel                    : Mk-CCSD
   Frank Weinhold                                : gennbo (NPA and NBO analysis)
   Christopher J. Cramer and Donald G. Truhlar   : smd solvation model
   Lars Goerigk                                  : TD-DFT with DH, B97 family of functionals
   V. Asgeirsson, H. Jonsson                     : NEB implementation
   FAccTs GmbH                                   : IRC, NEB, NEB-TS, Multilevel, MM, QM/MM, CI optimization
   S Lehtola, MJT Oliveira, MAL Marques          : LibXC Library


 Your calculation uses the libint2 library for the computation of 2-el integrals
 For citations please refer to: http://libint.valeyev.net

 Your ORCA version has been built with support for libXC version: 4.2.3
 For citations please refer to: https://tddft.org/programs/libxc/

 This ORCA versions uses:
   CBLAS   interface :  Fast vector & matrix operations
   LAPACKE interface :  Fast linear algebra routines
   SCALAPACK package :  Parallel linear algebra routines




***************************************
The coordinates will be read from file: benzene.xyz
***************************************


----- Orbital basis set information -----
Your calculation utilizes the basis: 6-31G*
   H-He, Li-Ne : W. J. Hehre, R. Ditchfield and J.A. Pople, J. Chem. Phys. 56, 2257 (1972).
                 Note: He and Ne are unpublished basis sets taken from the Gaussian program.
                 Note: Li and B from J. D. Dill and J. A. Pople, J. Chem. Phys. 62, 2921 (1975).
   Na - Ar     : M. M. Francl, W. J. Pietro, W. J. Hehre, J. S. Binkley, M. S. Gordon, 
                 D. J. DeFrees and J. A. Pople, J. Chem. Phys. 77, 3654 (1982).
   K - Zn      : V. A. Rassolov, J. A. Pople, M. A. Ratner, and T. L. Windus, J. Chem. Phys. 109, 1223 (1998).

----- AuxJ basis set information -----
Your calculation utilizes the AutoAux generation procedure.
  G. L. Stoychev, A. A. Auer, F. Neese, J. Chem. Theory Comput. 13, 554 (2017)

----- AuxC basis set information -----
Your calculation utilizes the AutoAux generation procedure.
  G. L. Stoychev, A. A. Auer, F. Neese, J. Chem. Theory Comput. 13, 554 (2017)

----- AuxJK basis set information -----
Your calculation utilizes the AutoAux generation procedure.
  G. L. Stoychev, A. A. Auer, F. Neese, J. Chem. Theory Comput. 13, 554 (2017)

================================================================================
                                        WARNINGS
                       Please study these warnings very carefully!
================================================================================


WARNING: Geometry Optimization
  ===> : Switching off AutoStart
         For restart on a previous wavefunction, please use MOREAD

INFO   : the flag for use of LIBINT has been found!

================================================================================
                                       INPUT FILE
================================================================================
NAME = benzene_0_1_bp86_6-31gpol.opt.inp
|  1> !uks bp86 6-31g* tightscf opt
|  2> !autoaux
|  3> !normalprint
|  4> !pal4
|  5> 
|  6> %scf
|  7>   maxiter 500
|  8> end
|  9> 
| 10> *xyzfile 0 1 benzene.xyz
| 11> 
| 12>                          ****END OF INPUT****
================================================================================

                       *****************************
                       * Geometry Optimization Run *
                       *****************************

Geometry optimization settings:
Update method            Update   .... BFGS
Choice of coordinates    CoordSys .... Z-matrix Internals
Initial Hessian          InHess   .... Almoef's Model

Convergence Tolerances:
Energy Change            TolE     ....  5.0000e-06 Eh
Max. Gradient            TolMAXG  ....  3.0000e-04 Eh/bohr
RMS Gradient             TolRMSG  ....  1.0000e-04 Eh/bohr
Max. Displacement        TolMAXD  ....  4.0000e-03 bohr
RMS Displacement         TolRMSD  ....  2.0000e-03 bohr
Strict Convergence                ....  False
------------------------------------------------------------------------------
                        ORCA OPTIMIZATION COORDINATE SETUP
------------------------------------------------------------------------------

The optimization will be done in new redundant internal coordinates
Making redundant internal coordinates   ...  (new redundants) done
Evaluating the initial hessian          ...  (Almloef) done
Evaluating the coordinates              ...  done
Calculating the B-matrix                .... done
Calculating the G-matrix                .... done
Diagonalizing the G-matrix              .... done
The first mode is                       ....   24
The number of degrees of freedom        ....   30

    -----------------------------------------------------------------
                    Redundant Internal Coordinates


    -----------------------------------------------------------------
         Definition                    Initial Value    Approx d2E/dq
    -----------------------------------------------------------------
      1. B(C   1,C   0)                  1.3950         0.613451   
      2. B(C   2,C   1)                  1.3947         0.614202   
      3. B(C   3,C   2)                  1.3949         0.613576   
      4. B(C   4,C   3)                  1.3949         0.613739   
      5. B(C   5,C   4)                  1.3947         0.614057   
      6. B(C   5,C   0)                  1.3947         0.614134   
      7. B(H   6,C   0)                  1.0867         0.364496   
      8. B(H   7,C   1)                  1.0866         0.364619   
      9. B(H   8,C   2)                  1.0867         0.364500   
     10. B(H   9,C   3)                  1.0865         0.364768   
     11. B(H  10,C   4)                  1.0868         0.364328   
     12. B(H  11,C   5)                  1.0867         0.364525   
     13. A(C   1,C   0,C   5)          119.9985         0.432498   
     14. A(C   1,C   0,H   6)          119.9915         0.352999   
     15. A(C   5,C   0,H   6)          120.0100         0.353066   
     16. A(C   2,C   1,H   7)          120.0112         0.353093   
     17. A(C   0,C   1,C   2)          119.9923         0.432506   
     18. A(C   0,C   1,H   7)          119.9965         0.353020   
     19. A(C   3,C   2,H   8)          119.9904         0.353012   
     20. A(C   1,C   2,H   8)          119.9986         0.353073   
     21. A(C   1,C   2,C   3)          120.0110         0.432522   
     22. A(C   4,C   3,H   9)          120.0060         0.353072   
     23. A(C   2,C   3,H   9)          120.0051         0.353056   
     24. A(C   2,C   3,C   4)          119.9889         0.432464   
     25. A(C   3,C   4,H  10)          119.9962         0.353000   
     26. A(C   3,C   4,C   5)          120.0006         0.432525   
     27. A(C   5,C   4,H  10)          120.0032         0.353031   
     28. A(C   0,C   5,C   4)          120.0085         0.432575   
     29. A(C   4,C   5,H  11)          120.0010         0.353063   
     30. A(C   0,C   5,H  11)          119.9904         0.353071   
     31. D(H   7,C   1,C   0,C   5)   -179.9604         0.026008   
     32. D(H   7,C   1,C   0,H   6)      0.0383         0.026008   
     33. D(C   2,C   1,C   0,H   6)   -179.9399         0.026008   
     34. D(C   2,C   1,C   0,C   5)      0.0614         0.026008   
     35. D(H   8,C   2,C   1,C   0)    179.8875         0.026075   
     36. D(C   3,C   2,C   1,C   0)     -0.1354         0.026075   
     37. D(C   3,C   2,C   1,H   7)    179.8864         0.026075   
     38. D(H   8,C   2,C   1,H   7)     -0.0907         0.026075   
     39. D(H   9,C   3,C   2,H   8)      0.0470         0.026019   
     40. D(H   9,C   3,C   2,C   1)   -179.9301         0.026019   
     41. D(C   4,C   3,C   2,H   8)   -179.9511         0.026019   
     42. D(C   4,C   3,C   2,C   1)      0.0718         0.026019   
     43. D(H  10,C   4,C   3,C   2)   -179.9591         0.026033   
     44. D(C   5,C   4,C   3,H   9)   -179.9323         0.026033   
     45. D(C   5,C   4,C   3,C   2)      0.0658         0.026033   
     46. D(H  10,C   4,C   3,H   9)      0.0427         0.026033   
     47. D(H  11,C   5,C   4,H  10)     -0.1033         0.026062   
     48. D(C   0,C   5,C   4,H  10)    179.8851         0.026062   
     49. D(C   0,C   5,C   4,C   3)     -0.1398         0.026062   
     50. D(H  11,C   5,C   0,H   6)      0.0659         0.026069   
     51. D(H  11,C   5,C   0,C   1)   -179.9354         0.026069   
     52. D(H  11,C   5,C   4,C   3)    179.8717         0.026062   
     53. D(C   4,C   5,C   0,H   6)   -179.9225         0.026069   
     54. D(C   4,C   5,C   0,C   1)      0.0762         0.026069   
    -----------------------------------------------------------------

Number of atoms                         .... 12
Number of degrees of freedom            .... 54

         *************************************************************
         *                GEOMETRY OPTIMIZATION CYCLE   1            *
         *************************************************************
---------------------------------
CARTESIAN COORDINATES (ANGSTROEM)
---------------------------------
  C      1.382680   -0.221770    0.005570
  C      0.506340   -1.307050   -0.008130
  C     -0.871400   -1.090590   -0.014570
  C     -1.373230    0.210910   -0.004460
  C     -0.496830    1.295960    0.010580
  C      0.880990    1.079530    0.014120
  H      2.456200   -0.390440    0.009600
  H      0.897240   -2.320890   -0.014140
  H     -1.554150   -1.935930   -0.027090
  H     -2.446570    0.379420   -0.008330
  H     -0.887690    2.310030    0.019130
  H      1.563770    1.924860    0.023730

----------------------------
CARTESIAN COORDINATES (A.U.)
----------------------------
  NO LB      ZA    FRAG     MASS         X           Y           Z
   0 C     6.0000    0    12.011    2.612887   -0.419085    0.010526
   1 C     6.0000    0    12.011    0.956844   -2.469967   -0.015363
   2 C     6.0000    0    12.011   -1.646707   -2.060916   -0.027533
   3 C     6.0000    0    12.011   -2.595029    0.398562   -0.008428
   4 C     6.0000    0    12.011   -0.938873    2.449009    0.019993
   5 C     6.0000    0    12.011    1.664830    2.040016    0.026683
   6 H     1.0000    0     1.008    4.641545   -0.737825    0.018141
   7 H     1.0000    0     1.008    1.695538   -4.385846   -0.026721
   8 H     1.0000    0     1.008   -2.936918   -3.658378   -0.051193
   9 H     1.0000    0     1.008   -4.623347    0.717000   -0.015741
  10 H     1.0000    0     1.008   -1.677491    4.365324    0.036150
  11 H     1.0000    0     1.008    2.955097    3.637458    0.044843

--------------------------------
INTERNAL COORDINATES (ANGSTROEM)
--------------------------------
 C      0   0   0     0.000000000000     0.00000000     0.00000000
 C      1   0   0     1.394988230775     0.00000000     0.00000000
 C      2   1   0     1.394655481759   119.99228773     0.00000000
 C      3   2   1     1.394932905555   120.01099972   359.86461052
 C      4   3   2     1.394860804561   119.98885468     0.07175811
 C      1   2   3     1.394685501681   119.99850562     0.06143482
 H      1   2   3     1.086697290049   119.99147191   180.06013803
 H      2   1   3     1.086605022858   119.99653876   179.97820570
 H      3   2   1     1.086694082297   119.99862004   179.88750101
 H      4   3   2     1.086494064687   120.00513763   180.06992831
 H      5   4   3     1.086822251796   119.99618845   180.04090425
 H      6   1   2     1.086675521671   119.99043600   180.06464683

---------------------------
INTERNAL COORDINATES (A.U.)
---------------------------
 C      0   0   0     0.000000000000     0.00000000     0.00000000
 C      1   0   0     2.636145716208     0.00000000     0.00000000
 C      2   1   0     2.635516911696   119.99228773     0.00000000
 C      3   2   1     2.636041166694   120.01099972   359.86461052
 C      4   3   2     2.635904915561   119.98885468     0.07175811
 C      1   2   3     2.635573641128   119.99850562     0.06143482
 H      1   2   3     2.053560268667   119.99147191   180.06013803
 H      2   1   3     2.053385908945   119.99653876   179.97820570
 H      3   2   1     2.053554206895   119.99862004   179.88750101
 H      4   3   2     2.053176228389   120.00513763   180.06992831
 H      5   4   3     2.053796412147   119.99618845   180.04090425
 H      6   1   2     2.053519132395   119.99043600   180.06464683

---------------------
BASIS SET INFORMATION
---------------------
There are 2 groups of distinct atoms

 Group   1 Type C   : 10s4p1d contracted to 3s2p1d pattern {631/31/1}
 Group   2 Type H   : 4s contracted to 2s pattern {31}

Atom   0C    basis set group =>   1
Atom   1C    basis set group =>   1
Atom   2C    basis set group =>   1
Atom   3C    basis set group =>   1
Atom   4C    basis set group =>   1
Atom   5C    basis set group =>   1
Atom   6H    basis set group =>   2
Atom   7H    basis set group =>   2
Atom   8H    basis set group =>   2
Atom   9H    basis set group =>   2
Atom  10H    basis set group =>   2
Atom  11H    basis set group =>   2
---------------------------------
AUXILIARY/J BASIS SET INFORMATION
---------------------------------
There are 2 groups of distinct atoms

 Group   1 Type C   : 13s11p10d2f contracted to 13s11p10d2f pattern {1111111111111/11111111111/1111111111/11}
 Group   2 Type H   : 9s2p contracted to 9s2p pattern {111111111/11}

Atom   0C    basis set group =>   1
Atom   1C    basis set group =>   1
Atom   2C    basis set group =>   1
Atom   3C    basis set group =>   1
Atom   4C    basis set group =>   1
Atom   5C    basis set group =>   1
Atom   6H    basis set group =>   2
Atom   7H    basis set group =>   2
Atom   8H    basis set group =>   2
Atom   9H    basis set group =>   2
Atom  10H    basis set group =>   2
Atom  11H    basis set group =>   2
---------------------------------
AUXILIARY/C BASIS SET INFORMATION
---------------------------------
There are 2 groups of distinct atoms

 Group   1 Type C   : 13s11p10d2f contracted to 13s11p10d2f pattern {1111111111111/11111111111/1111111111/11}
 Group   2 Type H   : 9s2p contracted to 9s2p pattern {111111111/11}

Atom   0C    basis set group =>   1
Atom   1C    basis set group =>   1
Atom   2C    basis set group =>   1
Atom   3C    basis set group =>   1
Atom   4C    basis set group =>   1
Atom   5C    basis set group =>   1
Atom   6H    basis set group =>   2
Atom   7H    basis set group =>   2
Atom   8H    basis set group =>   2
Atom   9H    basis set group =>   2
Atom  10H    basis set group =>   2
Atom  11H    basis set group =>   2
----------------------------------
AUXILIARY/JK BASIS SET INFORMATION
----------------------------------
There are 2 groups of distinct atoms

 Group   1 Type C   : 13s11p10d2f contracted to 13s11p10d2f pattern {1111111111111/11111111111/1111111111/11}
 Group   2 Type H   : 9s2p contracted to 9s2p pattern {111111111/11}

Atom   0C    basis set group =>   1
Atom   1C    basis set group =>   1
Atom   2C    basis set group =>   1
Atom   3C    basis set group =>   1
Atom   4C    basis set group =>   1
Atom   5C    basis set group =>   1
Atom   6H    basis set group =>   2
Atom   7H    basis set group =>   2
Atom   8H    basis set group =>   2
Atom   9H    basis set group =>   2
Atom  10H    basis set group =>   2
Atom  11H    basis set group =>   2


           ************************************************************
           *        Program running with 4 parallel MPI-processes     *
           *              working on a common directory               *
           ************************************************************
------------------------------------------------------------------------------
                           ORCA GTO INTEGRAL CALCULATION
                           -- RI-GTO INTEGRALS CHOSEN --
------------------------------------------------------------------------------

                         BASIS SET STATISTICS AND STARTUP INFO

Gaussian basis set:
 # of primitive gaussian shells          ...  114
 # of primitive gaussian functions       ...  186
 # of contracted shells                  ...   48
 # of contracted basis functions         ...   96
 Highest angular momentum                ...    2
 Maximum contraction depth               ...    6
Auxiliary gaussian basis set:
 # of primitive gaussian shells          ...  282
 # of primitive gaussian functions       ...  750
 # of contracted shells                  ...  282
 # of contracted aux-basis functions     ...  750
 Highest angular momentum                ...    3
 Maximum contraction depth               ...    1
Ratio of auxiliary to basis functions    ...  7.81
Integral package used                  ... LIBINT
 One Electron integrals                  ... done
 Ordering auxiliary basis shells         ... done
 Integral threshhold             Thresh  ...  2.500e-11
 Primitive cut-off               TCut    ...  2.500e-12
 Pre-screening matrix                    ... done
 Shell pair data                         ... 
 Ordering of the shell pairs             ... done (   0.000 sec) 1158 of 1176 pairs
 Determination of significant pairs      ... done (   0.000 sec)
 Creation of shell pair data             ... done (   0.000 sec)
 Storage of shell pair data              ... done (   0.005 sec)
 Shell pair data done in (   0.006 sec)
 Computing two index integrals           ... done
 Cholesky decomposition of the V-matrix  ... done


Timings:
 Total evaluation time                   ...   0.167 sec (  0.003 min)
 One electron matrix time                ...   0.013 sec (  0.000 min) =  7.8%
 Schwartz matrix evaluation time         ...   0.101 sec (  0.002 min) = 60.5%
 Two index repulsion integral time       ...   0.016 sec (  0.000 min) =  9.3%
 Cholesky decomposition of V             ...   0.014 sec (  0.000 min) =  8.2%
 Three index repulsion integral time     ...   0.000 sec (  0.000 min) =  0.0%



           ************************************************************
           *        Program running with 4 parallel MPI-processes     *
           *              working on a common directory               *
           ************************************************************
-------------------------------------------------------------------------------
                                 ORCA SCF
-------------------------------------------------------------------------------

------------
SCF SETTINGS
------------
Hamiltonian:
 Density Functional     Method          .... DFT(GTOs)
 Exchange Functional    Exchange        .... B88
   X-Alpha parameter    XAlpha          ....  0.666667
   Becke's b parameter  XBeta           ....  0.004200
 Correlation Functional Correlation     .... P86
 LDA part of GGA corr.  LDAOpt          .... PW91-LDA
 Gradients option       PostSCFGGA      .... off
   Density functional embedding theory  .... OFF
 RI-approximation to the Coulomb term is turned on
   Number of auxiliary basis functions  .... 750


General Settings:
 Integral files         IntName         .... benzene_0_1_bp86_6-31gpol.opt
 Hartree-Fock type      HFTyp           .... UHF
 Total Charge           Charge          ....    0
 Multiplicity           Mult            ....    1
 Number of Electrons    NEL             ....   42
 Basis Dimension        Dim             ....   96
 Nuclear Repulsion      ENuc            ....    203.4202951848 Eh

Convergence Acceleration:
 DIIS                   CNVDIIS         .... on
   Start iteration      DIISMaxIt       ....    12
   Startup error        DIISStart       ....  0.200000
   # of expansion vecs  DIISMaxEq       ....     5
   Bias factor          DIISBfac        ....   1.050
   Max. coefficient     DIISMaxC        ....  10.000
 Newton-Raphson         CNVNR           .... off
 SOSCF                  CNVSOSCF        .... off
 Level Shifting         CNVShift        .... on
   Level shift para.    LevelShift      ....    0.2500
   Turn off err/grad.   ShiftErr        ....    0.0010
 Zerner damping         CNVZerner       .... off
 Static damping         CNVDamp         .... on
   Fraction old density DampFac         ....    0.7000
   Max. Damping (<1)    DampMax         ....    0.9800
   Min. Damping (>=0)   DampMin         ....    0.0000
   Turn off err/grad.   DampErr         ....    0.1000
 Fernandez-Rico         CNVRico         .... off

SCF Procedure:
 Maximum # iterations   MaxIter         ....   500
 SCF integral mode      SCFMode         .... Direct
   Integral package                     .... LIBINT
 Reset frequency        DirectResetFreq ....    20
 Integral Threshold     Thresh          ....  2.500e-11 Eh
 Primitive CutOff       TCut            ....  2.500e-12 Eh

Convergence Tolerance:
 Convergence Check Mode ConvCheckMode   .... Total+1el-Energy
 Convergence forced     ConvForced      .... 0
 Energy Change          TolE            ....  1.000e-08 Eh
 1-El. energy change                    ....  1.000e-05 Eh
 DIIS Error             TolErr          ....  5.000e-07


Diagonalization of the overlap matrix:
Smallest eigenvalue                        ... 5.287e-04
Time for diagonalization                   ...    0.002 sec
Threshold for overlap eigenvalues          ... 1.000e-08
Number of eigenvalues below threshold      ... 0
Time for construction of square roots      ...    0.003 sec
Total time needed                          ...    0.005 sec

-------------------
DFT GRID GENERATION
-------------------

General Integration Accuracy     IntAcc      ...  4.340
Radial Grid Type                 RadialGrid  ... Gauss-Chebyshev
Angular Grid (max. acc.)         AngularGrid ... Lebedev-110
Angular grid pruning method      GridPruning ... 3 (G Style)
Weight generation scheme         WeightScheme... Becke
Basis function cutoff            BFCut       ...    1.0000e-11
Integration weight cutoff        WCut        ...    1.0000e-14
Grids for H and He will be reduced by one unit

# of grid points (after initial pruning)     ...  14700 (   0.0 sec)
# of grid points (after weights+screening)   ...  13794 (   0.0 sec)
nearest neighbour list constructed           ...    0.0 sec
Grid point re-assignment to atoms done       ...    0.0 sec
Grid point division into batches done        ...    0.0 sec
Reduced shell lists constructed in    0.0 sec

Total number of grid points                  ...    13794
Total number of batches                      ...      220
Average number of points per batch           ...       62
Average number of grid points per atom       ...     1150
Average number of shells per batch           ...    43.54 (90.70%)
Average number of basis functions per batch  ...    90.68 (94.46%)
Average number of large shells per batch     ...    39.14 (89.91%)
Average number of large basis fcns per batch ...    83.68 (92.28%)
Maximum spatial batch extension              ...   3.57,  3.80, 22.17 au
Average spatial batch extension              ...   0.47,  0.48,  1.10 au

Time for grid setup =    0.057 sec

------------------------------
INITIAL GUESS: MODEL POTENTIAL
------------------------------
Loading Hartree-Fock densities                     ... done
Calculating cut-offs                               ... done
Setting up the integral package                    ... done
Initializing the effective Hamiltonian             ... done
Starting the Coulomb interaction                   ... done (   0.0 sec)
Reading the grid                                   ... done
Mapping shells                                     ... done
Starting the XC term evaluation                    ... done (   0.0 sec)
  promolecular density results
     # of electrons  =     42.002965670
     EX              =    -32.606207625
     EC              =     -1.491616572
     EX+EC           =    -34.097824197
Transforming the Hamiltonian                       ... done (   0.0 sec)
Diagonalizing the Hamiltonian                      ... done (   0.0 sec)
Back transforming the eigenvectors                 ... done (   0.0 sec)
Now organizing SCF variables                       ... done
                      ------------------
                      INITIAL GUESS DONE (   0.2 sec)
                      ------------------
--------------
SCF ITERATIONS
--------------
               ***  Starting incremental Fock matrix formation  ***

                         ----------------------------
                         !        ITERATION     0   !
                         ----------------------------
   Total Energy        :    -232.110395005486 Eh
   Energy Change       :    -232.110395005486 Eh
   MAX-DP              :       0.020961099558
   RMS-DP              :       0.001394115470
   Actual Damping      :       0.7000
   Actual Level Shift  :       0.2500 Eh
   Int. Num. El.       :    42.00061268 (UP=   21.00030634 DN=   21.00030634)
   Exchange            :   -33.76036129
   Correlation         :    -1.51060685


                         ----------------------------
                         !        ITERATION     1   !
                         ----------------------------
   Total Energy        :    -232.169239780405 Eh
   Energy Change       :      -0.058844774918 Eh
   MAX-DP              :       0.017334993807
   RMS-DP              :       0.001061045985
   Actual Damping      :       0.7000
   Actual Level Shift  :       0.2500 Eh
   Int. Num. El.       :    42.00112364 (UP=   21.00056182 DN=   21.00056182)
   Exchange            :   -33.54815617
   Correlation         :    -1.50442516

                               ***Turning on DIIS***

                         ----------------------------
                         !        ITERATION     2   !
                         ----------------------------
   Total Energy        :    -232.192094174350 Eh
   Energy Change       :      -0.022854393945 Eh
   MAX-DP              :       0.029811310418
   RMS-DP              :       0.001738574315
   Actual Damping      :       0.0000
   Actual Level Shift  :       0.2500 Eh
   Int. Num. El.       :    42.00148391 (UP=   21.00074195 DN=   21.00074195)
   Exchange            :   -33.40192865
   Correlation         :    -1.50031712
   DIIS-Error          :       0.021251321781


                         ----------------------------
                         !        ITERATION     3   !
                         ----------------------------
   Total Energy        :    -232.223102274729 Eh
   Energy Change       :      -0.031008100379 Eh
   MAX-DP              :       0.012414323130
   RMS-DP              :       0.000761336501
   Actual Damping      :       0.0000
   Actual Level Shift  :       0.2500 Eh
   Int. Num. El.       :    42.00208435 (UP=   21.00104217 DN=   21.00104217)
   Exchange            :   -33.18434605
   Correlation         :    -1.49549612
   DIIS-Error          :       0.040558330941
   DIIS coefficients:
      0.63215   0.36785


                         ----------------------------
                         !        ITERATION     4   !
                         ----------------------------
   Total Energy        :    -232.233572329396 Eh
   Energy Change       :      -0.010470054667 Eh
   MAX-DP              :       0.004993626143
   RMS-DP              :       0.000239204485
   Actual Damping      :       0.0000
   Actual Level Shift  :       0.2500 Eh
   Int. Num. El.       :    42.00189378 (UP=   21.00094689 DN=   21.00094689)
   Exchange            :   -33.27299174
   Correlation         :    -1.49852817
   DIIS-Error          :       0.008404795226
   DIIS coefficients:
      0.20222  -0.03795   0.83572


                         ----------------------------
                         !        ITERATION     5   !
                         ----------------------------
   Total Energy        :    -232.234155155222 Eh
   Energy Change       :      -0.000582825826 Eh
   MAX-DP              :       0.001493551057
   RMS-DP              :       0.000074709095
   Actual Damping      :       0.0000
   Actual Level Shift  :       0.2500 Eh
   Int. Num. El.       :    42.00182699 (UP=   21.00091349 DN=   21.00091349)
   Exchange            :   -33.29855780
   Correlation         :    -1.49925445
   DIIS-Error          :       0.001424219030
   DIIS coefficients:
      0.02291  -0.00737  -0.04986   1.03432


                         ----------------------------
                         !        ITERATION     6   !
                         ----------------------------
   Total Energy        :    -232.234175776899 Eh
   Energy Change       :      -0.000020621678 Eh
   MAX-DP              :       0.000605874020
   RMS-DP              :       0.000033975646
   Actual Damping      :       0.0000
   Actual Level Shift  :       0.0000 Eh
   Int. Num. El.       :    42.00181931 (UP=   21.00090966 DN=   21.00090966)
   Exchange            :   -33.30297215
   Correlation         :    -1.49939451
   DIIS-Error          :       0.000302896137
   DIIS coefficients:
     -0.00113   0.00084  -0.01513  -0.14965   1.16507


                         ----------------------------
                         !        ITERATION     7   !
                         ----------------------------
   Total Energy        :    -232.234176985424 Eh
   Energy Change       :      -0.000001208525 Eh
   MAX-DP              :       0.000034840194
   RMS-DP              :       0.000001586669
   Actual Damping      :       0.0000
   Actual Level Shift  :       0.0000 Eh
   Int. Num. El.       :    42.00181976 (UP=   21.00090988 DN=   21.00090988)
   Exchange            :   -33.30405444
   Correlation         :    -1.49945148
   DIIS-Error          :       0.000057771208
   DIIS coefficients:
      0.93399   0.00071   0.00083  -0.01338   0.07786


                         ----------------------------
                         !        ITERATION     8   !
                         ----------------------------
   Total Energy        :    -232.234176990078 Eh
   Energy Change       :      -0.000000004654 Eh
   MAX-DP              :       0.000023829420
   RMS-DP              :       0.000000885923
   Actual Damping      :       0.0000
   Actual Level Shift  :       0.0000 Eh
   Int. Num. El.       :    42.00182013 (UP=   21.00091007 DN=   21.00091007)
   Exchange            :   -33.30395324
   Correlation         :    -1.49944668
   DIIS-Error          :       0.000045311400
   DIIS coefficients:
      0.56143   0.44117   0.00162   0.00653  -0.01076


                         ----------------------------
                         !        ITERATION     9   !
                         ----------------------------
   Total Energy        :    -232.234176996109 Eh
   Energy Change       :      -0.000000006031 Eh
   MAX-DP              :       0.000007696343
   RMS-DP              :       0.000000349155
   Actual Damping      :       0.0000
   Actual Level Shift  :       0.0000 Eh
   Int. Num. El.       :    42.00182011 (UP=   21.00091006 DN=   21.00091006)
   Exchange            :   -33.30394154
   Correlation         :    -1.49944605
   DIIS-Error          :       0.000013678875
   DIIS coefficients:
      0.16372   0.23897   0.58838   0.00171   0.00722

                 **** Energy Check signals convergence ****

               *****************************************************
               *                     SUCCESS                       *
               *           SCF CONVERGED AFTER  10 CYCLES          *
               *****************************************************

Setting up the final grid:

General Integration Accuracy     IntAcc      ...  4.670
Radial Grid Type                 RadialGrid  ... Gauss-Chebyshev
Angular Grid (max. acc.)         AngularGrid ... Lebedev-302
Angular grid pruning method      GridPruning ... 3 (G Style)
Weight generation scheme         WeightScheme... Becke
Basis function cutoff            BFCut       ...    1.0000e-11
Integration weight cutoff        WCut        ...    1.0000e-14
Grids for H and He will be reduced by one unit

# of grid points (after initial pruning)     ...  57636 (   0.0 sec)
# of grid points (after weights+screening)   ...  53431 (   0.0 sec)
nearest neighbour list constructed           ...    0.0 sec
Grid point re-assignment to atoms done       ...    0.0 sec
Grid point division into batches done        ...    0.2 sec
Reduced shell lists constructed in    0.3 sec

Total number of grid points                  ...    53431
Total number of batches                      ...      838
Average number of points per batch           ...       63
Average number of grid points per atom       ...     4453
Average number of shells per batch           ...    42.43 (88.40%)
Average number of basis functions per batch  ...    88.75 (92.45%)
Average number of large shells per batch     ...    37.16 (87.58%)
Average number of large basis fcns per batch ...    78.77 (88.75%)
Maximum spatial batch extension              ...   3.76,  3.76, 23.19 au
Average spatial batch extension              ...   0.33,  0.34,  0.52 au

Final grid set up in    0.4 sec
Final integration                            ... done (   0.2 sec)
Change in XC energy                          ...    -0.000701065
Integrated number of electrons               ...    41.999966097
Previous integrated no of electrons          ...    42.001820125

----------------
TOTAL SCF ENERGY
----------------

Total Energy       :         -232.23487806 Eh           -6319.43231 eV

Components:
Nuclear Repulsion  :          203.42029518 Eh            5535.34764 eV
Electronic Energy  :         -435.65517325 Eh          -11854.77995 eV
One Electron Energy:         -714.31277286 Eh          -19437.43873 eV
Two Electron Energy:          278.65759962 Eh            7582.65878 eV

Virial components:
Potential Energy   :         -462.88672473 Eh          -12595.78814 eV
Kinetic Energy     :          230.65184667 Eh            6276.35583 eV
Virial Ratio       :            2.00686329


DFT components:
N(Alpha)           :       20.999983048672 electrons
N(Beta)            :       20.999983048672 electrons
N(Total)           :       41.999966097345 electrons
E(X)               :      -33.304419721519 Eh       
E(C)               :       -1.499676810548 Eh       
E(XC)              :      -34.804096532067 Eh       
DFET-embed. en.    :        0.000000000000 Eh       

---------------
SCF CONVERGENCE
---------------

  Last Energy change         ...   -3.5167e-09  Tolerance :   1.0000e-08
  Last MAX-Density change    ...    4.5239e-06  Tolerance :   1.0000e-07
  Last RMS-Density change    ...    1.7704e-07  Tolerance :   5.0000e-09
  Last DIIS Error            ...    7.3894e-06  Tolerance :   5.0000e-07

             **** THE GBW FILE WAS UPDATED (benzene_0_1_bp86_6-31gpol.opt.gbw) ****
             **** DENSITY FILE WAS UPDATED (benzene_0_1_bp86_6-31gpol.opt.scfp) ****
             **** ENERGY FILE WAS UPDATED (benzene_0_1_bp86_6-31gpol.opt.en.tmp) ****
----------------------
UHF SPIN CONTAMINATION
----------------------

Warning: in a DFT calculation there is little theoretical justification to 
         calculate <S**2> as in Hartree-Fock theory. We will do it anyways
         but you should keep in mind that the values have only limited relevance

Expectation value of <S**2>     :    -0.000000
Ideal value S*(S+1) for S=0.0   :     0.000000
Deviation                       :    -0.000000

             **** THE GBW FILE WAS UPDATED (benzene_0_1_bp86_6-31gpol.opt.gbw) ****
             **** DENSITY FILE WAS UPDATED (benzene_0_1_bp86_6-31gpol.opt.scfp) ****
----------------
ORBITAL ENERGIES
----------------
                 SPIN UP ORBITALS
  NO   OCC          E(Eh)            E(eV) 
   0   1.0000      -9.907619      -269.6000 
   1   1.0000      -9.907547      -269.5981 
   2   1.0000      -9.907439      -269.5951 
   3   1.0000      -9.907253      -269.5901 
   4   1.0000      -9.907148      -269.5872 
   5   1.0000      -9.907081      -269.5854 
   6   1.0000      -0.772328       -21.0161 
   7   1.0000      -0.671402       -18.2698 
   8   1.0000      -0.671359       -18.2686 
   9   1.0000      -0.539516       -14.6810 
  10   1.0000      -0.539329       -14.6759 
  11   1.0000      -0.468860       -12.7583 
  12   1.0000      -0.409313       -11.1380 
  13   1.0000      -0.390820       -10.6348 
  14   1.0000      -0.370979       -10.0949 
  15   1.0000      -0.370875       -10.0920 
  16   1.0000      -0.322545        -8.7769 
  17   1.0000      -0.297404        -8.0928 
  18   1.0000      -0.297273        -8.0892 
  19   1.0000      -0.221601        -6.0301 
  20   1.0000      -0.221367        -6.0237 
  21   0.0000      -0.028358        -0.7717 
  22   0.0000      -0.027869        -0.7584 
  23   0.0000       0.064660         1.7595 
  24   0.0000       0.118032         3.2118 
  25   0.0000       0.118192         3.2162 
  26   0.0000       0.119901         3.2627 
  27   0.0000       0.155176         4.2226 
  28   0.0000       0.155700         4.2368 
  29   0.0000       0.165929         4.5152 
  30   0.0000       0.265438         7.2229 
  31   0.0000       0.266866         7.2618 
  32   0.0000       0.279911         7.6168 
  33   0.0000       0.280798         7.6409 
  34   0.0000       0.435821        11.8593 
  35   0.0000       0.482488        13.1292 
  36   0.0000       0.502003        13.6602 
  37   0.0000       0.509686        13.8693 
  38   0.0000       0.516502        14.0547 
  39   0.0000       0.553710        15.0672 
  40   0.0000       0.555676        15.1207 
  41   0.0000       0.556576        15.1452 
  42   0.0000       0.556680        15.1480 
  43   0.0000       0.557610        15.1733 
  44   0.0000       0.585113        15.9217 
  45   0.0000       0.586567        15.9613 
  46   0.0000       0.618268        16.8239 
  47   0.0000       0.620737        16.8911 
  48   0.0000       0.695201        18.9174 
  49   0.0000       0.790190        21.5022 
  50   0.0000       0.790454        21.5093 
  51   0.0000       0.790570        21.5125 
  52   0.0000       0.817202        22.2372 
  53   0.0000       0.819124        22.2895 
  54   0.0000       0.893567        24.3152 
  55   0.0000       0.893648        24.3174 
  56   0.0000       0.894545        24.3418 
  57   0.0000       0.907566        24.6961 
  58   0.0000       1.038770        28.2664 
  59   0.0000       1.039210        28.2783 
  60   0.0000       1.088787        29.6274 
  61   0.0000       1.089359        29.6430 
  62   0.0000       1.149701        31.2850 
  63   0.0000       1.196498        32.5584 
  64   0.0000       1.327949        36.1353 
  65   0.0000       1.379918        37.5495 
  66   0.0000       1.380655        37.5695 
  67   0.0000       1.417100        38.5612 
  68   0.0000       1.417420        38.5700 
  69   0.0000       1.444947        39.3190 
  70   0.0000       1.445225        39.3266 
  71   0.0000       1.689596        45.9762 
  72   0.0000       1.718863        46.7726 
  73   0.0000       1.784657        48.5630 
  74   0.0000       1.849030        50.3147 
  75   0.0000       1.897002        51.6201 
  76   0.0000       1.897211        51.6257 
  77   0.0000       1.992817        54.2273 
  78   0.0000       1.993249        54.2391 
  79   0.0000       2.073716        56.4287 
  80   0.0000       2.074254        56.4433 
  81   0.0000       2.081991        56.6539 
  82   0.0000       2.082725        56.6738 
  83   0.0000       2.228623        60.6439 
  84   0.0000       2.228958        60.6530 
  85   0.0000       2.243133        61.0388 
  86   0.0000       2.465921        67.1011 
  87   0.0000       2.466776        67.1244 
  88   0.0000       2.573754        70.0354 
  89   0.0000       2.623220        71.3815 
  90   0.0000       2.623522        71.3897 
  91   0.0000       2.641706        71.8845 
  92   0.0000       2.642665        71.9106 
  93   0.0000       2.684105        73.0382 
  94   0.0000       2.932830        79.8064 
  95   0.0000       3.326727        90.5248 

                 SPIN DOWN ORBITALS
  NO   OCC          E(Eh)            E(eV) 
   0   1.0000      -9.907619      -269.6000 
   1   1.0000      -9.907547      -269.5981 
   2   1.0000      -9.907439      -269.5951 
   3   1.0000      -9.907253      -269.5901 
   4   1.0000      -9.907148      -269.5872 
   5   1.0000      -9.907081      -269.5854 
   6   1.0000      -0.772328       -21.0161 
   7   1.0000      -0.671402       -18.2698 
   8   1.0000      -0.671359       -18.2686 
   9   1.0000      -0.539516       -14.6810 
  10   1.0000      -0.539329       -14.6759 
  11   1.0000      -0.468860       -12.7583 
  12   1.0000      -0.409313       -11.1380 
  13   1.0000      -0.390820       -10.6348 
  14   1.0000      -0.370979       -10.0949 
  15   1.0000      -0.370875       -10.0920 
  16   1.0000      -0.322545        -8.7769 
  17   1.0000      -0.297404        -8.0928 
  18   1.0000      -0.297273        -8.0892 
  19   1.0000      -0.221601        -6.0301 
  20   1.0000      -0.221367        -6.0237 
  21   0.0000      -0.028358        -0.7717 
  22   0.0000      -0.027869        -0.7584 
  23   0.0000       0.064660         1.7595 
  24   0.0000       0.118032         3.2118 
  25   0.0000       0.118192         3.2162 
  26   0.0000       0.119901         3.2627 
  27   0.0000       0.155176         4.2226 
  28   0.0000       0.155700         4.2368 
  29   0.0000       0.165929         4.5152 
  30   0.0000       0.265438         7.2229 
  31   0.0000       0.266866         7.2618 
  32   0.0000       0.279911         7.6168 
  33   0.0000       0.280798         7.6409 
  34   0.0000       0.435821        11.8593 
  35   0.0000       0.482488        13.1292 
  36   0.0000       0.502003        13.6602 
  37   0.0000       0.509686        13.8693 
  38   0.0000       0.516502        14.0547 
  39   0.0000       0.553710        15.0672 
  40   0.0000       0.555676        15.1207 
  41   0.0000       0.556576        15.1452 
  42   0.0000       0.556680        15.1480 
  43   0.0000       0.557610        15.1733 
  44   0.0000       0.585113        15.9217 
  45   0.0000       0.586567        15.9613 
  46   0.0000       0.618268        16.8239 
  47   0.0000       0.620737        16.8911 
  48   0.0000       0.695201        18.9174 
  49   0.0000       0.790190        21.5022 
  50   0.0000       0.790454        21.5093 
  51   0.0000       0.790570        21.5125 
  52   0.0000       0.817202        22.2372 
  53   0.0000       0.819124        22.2895 
  54   0.0000       0.893567        24.3152 
  55   0.0000       0.893648        24.3174 
  56   0.0000       0.894545        24.3418 
  57   0.0000       0.907566        24.6961 
  58   0.0000       1.038770        28.2664 
  59   0.0000       1.039210        28.2783 
  60   0.0000       1.088787        29.6274 
  61   0.0000       1.089359        29.6430 
  62   0.0000       1.149701        31.2850 
  63   0.0000       1.196498        32.5584 
  64   0.0000       1.327949        36.1353 
  65   0.0000       1.379918        37.5495 
  66   0.0000       1.380655        37.5695 
  67   0.0000       1.417100        38.5612 
  68   0.0000       1.417420        38.5700 
  69   0.0000       1.444947        39.3190 
  70   0.0000       1.445225        39.3266 
  71   0.0000       1.689596        45.9762 
  72   0.0000       1.718863        46.7726 
  73   0.0000       1.784657        48.5630 
  74   0.0000       1.849030        50.3147 
  75   0.0000       1.897002        51.6201 
  76   0.0000       1.897211        51.6257 
  77   0.0000       1.992817        54.2273 
  78   0.0000       1.993249        54.2391 
  79   0.0000       2.073716        56.4287 
  80   0.0000       2.074254        56.4433 
  81   0.0000       2.081991        56.6539 
  82   0.0000       2.082725        56.6738 
  83   0.0000       2.228623        60.6439 
  84   0.0000       2.228958        60.6530 
  85   0.0000       2.243133        61.0388 
  86   0.0000       2.465921        67.1011 
  87   0.0000       2.466776        67.1244 
  88   0.0000       2.573754        70.0354 
  89   0.0000       2.623220        71.3815 
  90   0.0000       2.623522        71.3897 
  91   0.0000       2.641706        71.8845 
  92   0.0000       2.642665        71.9106 
  93   0.0000       2.684105        73.0382 
  94   0.0000       2.932830        79.8064 
  95   0.0000       3.326727        90.5248 

                    ********************************
                    * MULLIKEN POPULATION ANALYSIS *
                    ********************************

--------------------------------------------
MULLIKEN ATOMIC CHARGES AND SPIN POPULATIONS
--------------------------------------------
   0 C :   -0.141025    0.000000
   1 C :   -0.131979    0.000000
   2 C :   -0.135630    0.000000
   3 C :   -0.140971    0.000000
   4 C :   -0.132045    0.000000
   5 C :   -0.135584    0.000000
   6 H :    0.138793    0.000000
   7 H :    0.132758    0.000000
   8 H :    0.137054    0.000000
   9 H :    0.138821    0.000000
  10 H :    0.132737    0.000000
  11 H :    0.137069    0.000000
Sum of atomic charges         :   -0.0000000
Sum of atomic spin populations:    0.0000000

-----------------------------------------------------
MULLIKEN REDUCED ORBITAL CHARGES AND SPIN POPULATIONS
-----------------------------------------------------
CHARGE
  0 C s       :     3.191671  s :     3.191671
      pz      :     0.992821  p :     2.915794
      px      :     0.984008
      py      :     0.938965
      dz2     :     0.003111  d :     0.033561
      dxz     :     0.001856
      dyz     :     0.005866
      dx2y2   :     0.013295
      dxy     :     0.009432
  1 C s       :     3.193291  s :     3.193291
      pz      :     0.991985  p :     2.905153
      px      :     0.937820
      py      :     0.975347
      dz2     :     0.003108  d :     0.033535
      dxz     :     0.005424
      dyz     :     0.002298
      dx2y2   :     0.011580
      dxy     :     0.011124
  2 C s       :     3.193611  s :     3.193611
      pz      :     0.991997  p :     2.908472
      px      :     0.953446
      py      :     0.963029
      dz2     :     0.003112  d :     0.033547
      dxz     :     0.004314
      dyz     :     0.003415
      dx2y2   :     0.009184
      dxy     :     0.013522
  3 C s       :     3.191678  s :     3.191678
      pz      :     0.992841  p :     2.915736
      px      :     0.983945
      py      :     0.938951
      dz2     :     0.003112  d :     0.033556
      dxz     :     0.001856
      dyz     :     0.005864
      dx2y2   :     0.013296
      dxy     :     0.009429
  4 C s       :     3.193317  s :     3.193317
      pz      :     0.991966  p :     2.905190
      px      :     0.937825
      py      :     0.975399
      dz2     :     0.003107  d :     0.033538
      dxz     :     0.005425
      dyz     :     0.002300
      dx2y2   :     0.011583
      dxy     :     0.011122
  5 C s       :     3.193528  s :     3.193528
      pz      :     0.992044  p :     2.908504
      px      :     0.953411
      py      :     0.963049
      dz2     :     0.003113  d :     0.033552
      dxz     :     0.004313
      dyz     :     0.003416
      dx2y2   :     0.009186
      dxy     :     0.013524
  6 H s       :     0.861207  s :     0.861207
  7 H s       :     0.867242  s :     0.867242
  8 H s       :     0.862946  s :     0.862946
  9 H s       :     0.861179  s :     0.861179
 10 H s       :     0.867263  s :     0.867263
 11 H s       :     0.862931  s :     0.862931

SPIN
  0 C s       :     0.000000  s :     0.000000
      pz      :     0.000000  p :     0.000000
      px      :     0.000000
      py      :     0.000000
      dz2     :     0.000000  d :     0.000000
      dxz     :     0.000000
      dyz     :     0.000000
      dx2y2   :     0.000000
      dxy     :     0.000000
  1 C s       :     0.000000  s :     0.000000
      pz      :     0.000000  p :     0.000000
      px      :     0.000000
      py      :     0.000000
      dz2     :     0.000000  d :     0.000000
      dxz     :     0.000000
      dyz     :     0.000000
      dx2y2   :     0.000000
      dxy     :     0.000000
  2 C s       :     0.000000  s :     0.000000
      pz      :     0.000000  p :     0.000000
      px      :     0.000000
      py      :     0.000000
      dz2     :     0.000000  d :     0.000000
      dxz     :     0.000000
      dyz     :     0.000000
      dx2y2   :     0.000000
      dxy     :     0.000000
  3 C s       :     0.000000  s :     0.000000
      pz      :     0.000000  p :     0.000000
      px      :     0.000000
      py      :     0.000000
      dz2     :     0.000000  d :     0.000000
      dxz     :     0.000000
      dyz     :     0.000000
      dx2y2   :     0.000000
      dxy     :     0.000000
  4 C s       :     0.000000  s :     0.000000
      pz      :     0.000000  p :     0.000000
      px      :     0.000000
      py      :     0.000000
      dz2     :     0.000000  d :     0.000000
      dxz     :     0.000000
      dyz     :     0.000000
      dx2y2   :     0.000000
      dxy     :     0.000000
  5 C s       :     0.000000  s :     0.000000
      pz      :     0.000000  p :     0.000000
      px      :     0.000000
      py      :     0.000000
      dz2     :     0.000000  d :     0.000000
      dxz     :     0.000000
      dyz     :     0.000000
      dx2y2   :     0.000000
      dxy     :     0.000000
  6 H s       :     0.000000  s :     0.000000
  7 H s       :     0.000000  s :     0.000000
  8 H s       :     0.000000  s :     0.000000
  9 H s       :     0.000000  s :     0.000000
 10 H s       :     0.000000  s :     0.000000
 11 H s       :     0.000000  s :     0.000000

------------------------
MULLIKEN OVERLAP CHARGES
------------------------
B(  0-C ,  1-C ) :   1.1006 B(  0-C ,  2-C ) :  -0.0589 B(  0-C ,  3-C ) :  -0.0871 
B(  0-C ,  4-C ) :  -0.0576 B(  0-C ,  5-C ) :   1.0998 B(  0-C ,  6-H ) :   0.7155 
B(  0-C ,  7-H ) :  -0.0900 B(  0-C , 11-H ) :  -0.0896 B(  1-C ,  2-C ) :   1.1010 
B(  1-C ,  3-C ) :  -0.0576 B(  1-C ,  4-C ) :  -0.0874 B(  1-C ,  5-C ) :  -0.0563 
B(  1-C ,  6-H ) :  -0.0890 B(  1-C ,  7-H ) :   0.7168 B(  1-C ,  8-H ) :  -0.0897 
B(  2-C ,  3-C ) :   1.0995 B(  2-C ,  4-C ) :  -0.0563 B(  2-C ,  5-C ) :  -0.0866 
B(  2-C ,  7-H ) :  -0.0909 B(  2-C ,  8-H ) :   0.7163 B(  2-C ,  9-H ) :  -0.0891 
B(  3-C ,  4-C ) :   1.1008 B(  3-C ,  5-C ) :  -0.0590 B(  3-C ,  8-H ) :  -0.0896 
B(  3-C ,  9-H ) :   0.7156 B(  3-C , 10-H ) :  -0.0900 B(  4-C ,  5-C ) :   1.1008 
B(  4-C ,  9-H ) :  -0.0890 B(  4-C , 10-H ) :   0.7168 B(  4-C , 11-H ) :  -0.0897 
B(  5-C ,  6-H ) :  -0.0891 B(  5-C , 10-H ) :  -0.0909 B(  5-C , 11-H ) :   0.7163 



                     *******************************
                     * LOEWDIN POPULATION ANALYSIS *
                     *******************************

-------------------------------------------
LOEWDIN ATOMIC CHARGES AND SPIN POPULATIONS
-------------------------------------------
   0 C :   -0.135138    0.000000
   1 C :   -0.132929    0.000000
   2 C :   -0.134364    0.000000
   3 C :   -0.135163    0.000000
   4 C :   -0.132890    0.000000
   5 C :   -0.134424    0.000000
   6 H :    0.134643    0.000000
   7 H :    0.133175    0.000000
   8 H :    0.134628    0.000000
   9 H :    0.134668    0.000000
  10 H :    0.133152    0.000000
  11 H :    0.134642    0.000000

----------------------------------------------------
LOEWDIN REDUCED ORBITAL CHARGES AND SPIN POPULATIONS
----------------------------------------------------
CHARGE
  0 C s       :     2.920366  s :     2.920366
      pz      :     0.983910  p :     3.131615
      px      :     1.073625
      py      :     1.074081
      dz2     :     0.005849  d :     0.083157
      dxz     :     0.003210
      dyz     :     0.013074
      dx2y2   :     0.034079
      dxy     :     0.026944
  1 C s       :     2.920353  s :     2.920353
      pz      :     0.983593  p :     3.129299
      px      :     1.073060
      py      :     1.072645
      dz2     :     0.005844  d :     0.083277
      dxz     :     0.011979
      dyz     :     0.004307
      dx2y2   :     0.031008
      dxy     :     0.030138
  2 C s       :     2.920361  s :     2.920361
      pz      :     0.983655  p :     3.130792
      px      :     1.073728
      py      :     1.073409
      dz2     :     0.005846  d :     0.083211
      dxz     :     0.009239
      dyz     :     0.007053
      dx2y2   :     0.026529
      dxy     :     0.034543
  3 C s       :     2.920368  s :     2.920368
      pz      :     0.983934  p :     3.131651
      px      :     1.073674
      py      :     1.074043
      dz2     :     0.005850  d :     0.083144
      dxz     :     0.003212
      dyz     :     0.013067
      dx2y2   :     0.034080
      dxy     :     0.026936
  4 C s       :     2.920363  s :     2.920363
      pz      :     0.983576  p :     3.129245
      px      :     1.073035
      py      :     1.072633
      dz2     :     0.005843  d :     0.083282
      dxz     :     0.011983
      dyz     :     0.004309
      dx2y2   :     0.031014
      dxy     :     0.030132
  5 C s       :     2.920314  s :     2.920314
      pz      :     0.983688  p :     3.130877
      px      :     1.073709
      py      :     1.073480
      dz2     :     0.005848  d :     0.083232
      dxz     :     0.009238
      dyz     :     0.007057
      dx2y2   :     0.026539
      dxy     :     0.034551
  6 H s       :     0.865357  s :     0.865357
  7 H s       :     0.866825  s :     0.866825
  8 H s       :     0.865372  s :     0.865372
  9 H s       :     0.865332  s :     0.865332
 10 H s       :     0.866848  s :     0.866848
 11 H s       :     0.865358  s :     0.865358

SPIN
  0 C s       :     0.000000  s :     0.000000
      pz      :     0.000000  p :     0.000000
      px      :     0.000000
      py      :     0.000000
      dz2     :     0.000000  d :     0.000000
      dxz     :     0.000000
      dyz     :     0.000000
      dx2y2   :     0.000000
      dxy     :     0.000000
  1 C s       :     0.000000  s :     0.000000
      pz      :     0.000000  p :     0.000000
      px      :     0.000000
      py      :     0.000000
      dz2     :     0.000000  d :     0.000000
      dxz     :     0.000000
      dyz     :     0.000000
      dx2y2   :     0.000000
      dxy     :     0.000000
  2 C s       :     0.000000  s :     0.000000
      pz      :     0.000000  p :     0.000000
      px      :     0.000000
      py      :     0.000000
      dz2     :     0.000000  d :     0.000000
      dxz     :     0.000000
      dyz     :     0.000000
      dx2y2   :     0.000000
      dxy     :     0.000000
  3 C s       :     0.000000  s :     0.000000
      pz      :     0.000000  p :     0.000000
      px      :     0.000000
      py      :     0.000000
      dz2     :     0.000000  d :     0.000000
      dxz     :     0.000000
      dyz     :     0.000000
      dx2y2   :     0.000000
      dxy     :     0.000000
  4 C s       :     0.000000  s :     0.000000
      pz      :     0.000000  p :     0.000000
      px      :     0.000000
      py      :     0.000000
      dz2     :     0.000000  d :     0.000000
      dxz     :     0.000000
      dyz     :     0.000000
      dx2y2   :     0.000000
      dxy     :     0.000000
  5 C s       :     0.000000  s :     0.000000
      pz      :     0.000000  p :     0.000000
      px      :     0.000000
      py      :     0.000000
      dz2     :     0.000000  d :     0.000000
      dxz     :     0.000000
      dyz     :     0.000000
      dx2y2   :     0.000000
      dxy     :     0.000000
  6 H s       :     0.000000  s :     0.000000
  7 H s       :     0.000000  s :     0.000000
  8 H s       :     0.000000  s :     0.000000
  9 H s       :     0.000000  s :     0.000000
 10 H s       :     0.000000  s :     0.000000
 11 H s       :     0.000000  s :     0.000000

---------------------------------
LOEWDIN BOND ORDERS (THRESH 0.050000)
---------------------------------
B(  0-C ,  1-C ) :   1.5033 B(  0-C ,  2-C ) :   0.0733 B(  0-C ,  3-C ) :   0.1194 
B(  0-C ,  4-C ) :   0.0734 B(  0-C ,  5-C ) :   1.5049 B(  0-C ,  6-H ) :   0.8988 
B(  1-C ,  2-C ) :   1.5050 B(  1-C ,  3-C ) :   0.0734 B(  1-C ,  4-C ) :   0.1191 
B(  1-C ,  5-C ) :   0.0734 B(  1-C ,  7-H ) :   0.8995 B(  2-C ,  3-C ) :   1.5045 
B(  2-C ,  4-C ) :   0.0734 B(  2-C ,  5-C ) :   0.1185 B(  2-C ,  8-H ) :   0.8988 
B(  3-C ,  4-C ) :   1.5038 B(  3-C ,  5-C ) :   0.0733 B(  3-C ,  9-H ) :   0.8989 
B(  4-C ,  5-C ) :   1.5046 B(  4-C , 10-H ) :   0.8995 B(  5-C , 11-H ) :   0.8988 


------------------------------------------
LOEWDIN REDUCED ORBITAL POPULATIONS PER MO
-------------------------------------------
THRESHOLD FOR PRINTING IS 0.1%
SPIN UP
                      0         1         2         3         4         5   
                  -9.90762  -9.90755  -9.90744  -9.90725  -9.90715  -9.90708
                   1.00000   1.00000   1.00000   1.00000   1.00000   1.00000
                  --------  --------  --------  --------  --------  --------
 0 C  s              26.2      38.5       1.8      21.5       1.6       9.9
 0 C  py              0.0       0.0       0.2       0.0       0.1       0.0
 1 C  s              13.7       9.3      23.6      24.4      12.0      16.5
 2 C  s               9.7       2.0      24.5       3.6      34.8      24.9
 3 C  s              24.1      36.8       2.8      24.7       1.4       9.7
 3 C  py              0.0       0.0       0.2       0.0       0.1       0.0
 4 C  s              15.6      11.1      25.1      22.6      11.1      13.9
 5 C  s              10.3       1.7      21.5       2.6      38.5      24.8

                      6         7         8         9        10        11   
                  -0.77233  -0.67140  -0.67136  -0.53952  -0.53933  -0.46886
                   1.00000   1.00000   1.00000   1.00000   1.00000   1.00000
                  --------  --------  --------  --------  --------  --------
 0 C  s              12.6      12.2       7.6       7.0       2.8       0.5
 0 C  px              2.4       0.1       0.2       3.2       0.2      11.1
 0 C  py              0.1       3.4       5.3       3.1      10.9       0.3
 0 C  dz2             0.1       0.1       0.1       0.0       0.0       0.0
 0 C  dxy             0.0       0.1       0.2       0.1       0.1       0.0
 1 C  s              12.6       0.4      19.4       7.7       2.1       0.5
 1 C  px              0.3       7.6       0.1       1.2      11.7       1.5
 1 C  py              2.1       1.1       0.1       4.4       0.2       9.9
 1 C  dz2             0.1       0.0       0.1       0.0       0.0       0.0
 1 C  dx2y2           0.0       0.1       0.0       0.0       0.1       0.0
 1 C  dxy             0.0       0.1       0.0       0.0       0.1       0.0
 2 C  s              12.5      17.1       2.7       0.0       9.9       0.5
 2 C  px              1.0       0.7       4.7       8.9       1.0       4.5
 2 C  py              1.5       0.6       2.9       5.4       2.2       6.9
 2 C  dz2             0.1       0.1       0.0       0.0       0.0       0.0
 2 C  dx2y2           0.0       0.0       0.2       0.2       0.0       0.0
 3 C  s              12.6      12.2       7.6       7.1       2.8       0.5
 3 C  px              2.4       0.1       0.2       3.2       0.2      11.1
 3 C  py              0.1       3.4       5.3       3.1      10.9       0.3
 3 C  dz2             0.1       0.1       0.1       0.0       0.0       0.0
 3 C  dxy             0.0       0.1       0.2       0.1       0.1       0.0
 4 C  s              12.6       0.4      19.4       7.7       2.1       0.5
 4 C  px              0.3       7.6       0.1       1.2      11.7       1.5
 4 C  py              2.1       1.1       0.1       4.4       0.2       9.9
 4 C  dz2             0.1       0.0       0.1       0.0       0.0       0.0
 4 C  dx2y2           0.0       0.1       0.0       0.0       0.1       0.0
 4 C  dxy             0.0       0.1       0.0       0.0       0.1       0.0
 5 C  s              12.6      17.1       2.7       0.0       9.9       0.5
 5 C  px              1.0       0.7       4.7       8.9       1.0       4.5
 5 C  py              1.5       0.6       2.9       5.4       2.2       6.9
 5 C  dz2             0.1       0.1       0.0       0.0       0.0       0.0
 5 C  dx2y2           0.0       0.0       0.2       0.2       0.0       0.0
 6 H  s               1.5       2.6       1.6       4.1       1.7       4.8
 7 H  s               1.5       0.1       4.1       4.5       1.2       4.8
 8 H  s               1.5       3.6       0.6       0.0       5.8       4.8
 9 H  s               1.5       2.6       1.6       4.1       1.7       4.8
10 H  s               1.5       0.1       4.1       4.5       1.2       4.8
11 H  s               1.5       3.6       0.6       0.0       5.8       4.8

                     12        13        14        15        16        17   
                  -0.40931  -0.39082  -0.37098  -0.37087  -0.32254  -0.29740
                   1.00000   1.00000   1.00000   1.00000   1.00000   1.00000
                  --------  --------  --------  --------  --------  --------
 0 C  s               3.2       0.0       0.4       0.1       0.0       0.0
 0 C  pz              0.0       0.0       0.0       0.0      16.5       0.0
 0 C  px              5.6       0.4      17.2       3.5       0.0       4.5
 0 C  py              0.1      16.2       0.1       1.7       0.0       6.2
 0 C  dxz             0.0       0.0       0.0       0.0       0.1       0.0
 0 C  dx2y2           0.4       0.0       0.0       0.1       0.0       0.8
 0 C  dxy             0.0       0.1       0.2       0.3       0.0       0.0
 1 C  s               3.3       0.0       0.3       0.2       0.0       0.1
 1 C  pz              0.0       0.0       0.0       0.0      16.5       0.0
 1 C  px              0.7      14.5       0.8       3.0       0.0       5.3
 1 C  py              4.9       2.1      14.3       4.4       0.0       4.7
 1 C  dyz             0.0       0.0       0.0       0.0       0.1       0.0
 1 C  dx2y2           0.3       0.0       0.0       0.3       0.0       0.7
 1 C  dxy             0.2       0.0       0.2       0.1       0.0       0.2
 2 C  s               3.3       0.0       0.0       0.5       0.0       0.0
 2 C  pz              0.0       0.0       0.0       0.0      16.6       0.0
 2 C  px              2.2      10.1       0.5       8.6       0.0       6.1
 2 C  py              3.4       6.5       0.9      12.6       0.0       6.2
 2 C  dx2y2           0.0       0.1       0.5       0.0       0.0       0.2
 2 C  dxy             0.4       0.0       0.0       0.1       0.0       0.1
 3 C  s               3.2       0.0       0.4       0.1       0.0       0.0
 3 C  pz              0.0       0.0       0.0       0.0      16.5       0.0
 3 C  px              5.6       0.4      17.3       3.5       0.0       4.5
 3 C  py              0.1      16.2       0.1       1.7       0.0       6.2
 3 C  dxz             0.0       0.0       0.0       0.0       0.1       0.0
 3 C  dx2y2           0.4       0.0       0.0       0.1       0.0       0.8
 3 C  dxy             0.0       0.1       0.2       0.3       0.0       0.0
 4 C  s               3.3       0.0       0.3       0.2       0.0       0.1
 4 C  pz              0.0       0.0       0.0       0.0      16.5       0.0
 4 C  px              0.7      14.5       0.8       3.0       0.0       5.3
 4 C  py              5.0       2.1      14.3       4.4       0.0       4.8
 4 C  dyz             0.0       0.0       0.0       0.0       0.1       0.0
 4 C  dx2y2           0.3       0.0       0.0       0.3       0.0       0.7
 4 C  dxy             0.2       0.0       0.2       0.1       0.0       0.2
 5 C  s               3.3       0.0       0.0       0.5       0.0       0.0
 5 C  pz              0.0       0.0       0.0       0.0      16.6       0.0
 5 C  px              2.2      10.1       0.5       8.6       0.0       6.1
 5 C  py              3.4       6.5       0.9      12.6       0.0       6.2
 5 C  dx2y2           0.0       0.1       0.5       0.0       0.0       0.2
 5 C  dxy             0.4       0.0       0.0       0.1       0.0       0.1
 6 H  s               7.3       0.0       7.8       1.9       0.0       6.3
 7 H  s               7.3       0.0       6.7       3.0       0.0       8.4
 8 H  s               7.2       0.0       0.0       9.7       0.0       0.2
 9 H  s               7.3       0.0       7.8       1.9       0.0       6.3
10 H  s               7.3       0.0       6.7       3.0       0.0       8.4
11 H  s               7.2       0.0       0.0       9.7       0.0       0.2

                     18        19        20        21        22        23   
                  -0.29727  -0.22160  -0.22137  -0.02836  -0.02787   0.06466
                   1.00000   1.00000   1.00000   0.00000   0.00000   0.00000
                  --------  --------  --------  --------  --------  --------
 0 C  s               0.0       0.0       0.0       0.0       0.0       2.6
 0 C  pz              0.0       3.4      29.3      27.2       4.3       0.0
 0 C  px              5.2       0.0       0.0       0.0       0.0       2.7
 0 C  py              6.2       0.0       0.0       0.0       0.0       0.1
 0 C  dz2             0.0       0.0       0.0       0.0       0.0       0.1
 0 C  dxz             0.0       0.0       0.0       0.3       0.0       0.0
 0 C  dyz             0.0       0.6       0.1       0.1       1.4       0.0
 0 C  dx2y2           0.2       0.0       0.0       0.0       0.0       1.1
 0 C  dxy             0.4       0.0       0.0       0.0       0.0       0.1
 1 C  s               0.0       0.0       0.0       0.0       0.0       2.8
 1 C  pz              0.0      14.2      18.4      19.3      12.2       0.0
 1 C  px              6.8       0.0       0.0       0.0       0.0       0.4
 1 C  py              5.2       0.0       0.0       0.0       0.0       2.5
 1 C  dz2             0.0       0.0       0.0       0.0       0.0       0.1
 1 C  dxz             0.0       0.4       0.2       0.3       1.1       0.0
 1 C  dyz             0.0       0.0       0.1       0.5       0.0       0.0
 1 C  dx2y2           0.0       0.0       0.0       0.0       0.0       0.6
 1 C  dxy             0.4       0.0       0.0       0.0       0.0       0.5
 2 C  s               0.1       0.0       0.0       0.0       0.0       2.6
 2 C  pz              0.0      31.4       1.2       0.7      30.8       0.0
 2 C  px              5.2       0.0       0.0       0.0       0.0       1.1
 2 C  py              4.5       0.0       0.0       0.0       0.0       1.6
 2 C  dxz             0.0       0.1       0.4       0.8       0.2       0.0
 2 C  dyz             0.0       0.0       0.3       0.7       0.1       0.0
 2 C  dxy             1.0       0.0       0.0       0.0       0.0       1.1
 3 C  s               0.0       0.0       0.0       0.0       0.0       2.6
 3 C  pz              0.0       3.4      29.3      27.2       4.3       0.0
 3 C  px              5.2       0.0       0.0       0.0       0.0       2.7
 3 C  py              6.2       0.0       0.0       0.0       0.0       0.1
 3 C  dz2             0.0       0.0       0.0       0.0       0.0       0.1
 3 C  dxz             0.0       0.0       0.0       0.3       0.0       0.0
 3 C  dyz             0.0       0.6       0.1       0.1       1.4       0.0
 3 C  dx2y2           0.2       0.0       0.0       0.0       0.0       1.1
 3 C  dxy             0.4       0.0       0.0       0.0       0.0       0.1
 4 C  s               0.0       0.0       0.0       0.0       0.0       2.8
 4 C  pz              0.0      14.2      18.4      19.3      12.2       0.0
 4 C  px              6.8       0.0       0.0       0.0       0.0       0.4
 4 C  py              5.2       0.0       0.0       0.0       0.0       2.5
 4 C  dz2             0.0       0.0       0.0       0.0       0.0       0.1
 4 C  dxz             0.0       0.4       0.2       0.3       1.1       0.0
 4 C  dyz             0.0       0.0       0.1       0.5       0.0       0.0
 4 C  dx2y2           0.0       0.0       0.0       0.0       0.0       0.6
 4 C  dxy             0.4       0.0       0.0       0.0       0.0       0.5
 5 C  s               0.1       0.0       0.0       0.0       0.0       2.6
 5 C  pz              0.0      31.4       1.2       0.7      30.8       0.0
 5 C  px              5.2       0.0       0.0       0.0       0.0       1.1
 5 C  py              4.5       0.0       0.0       0.0       0.0       1.7
 5 C  dxz             0.0       0.1       0.4       0.8       0.2       0.0
 5 C  dyz             0.0       0.0       0.3       0.7       0.1       0.0
 5 C  dxy             1.0       0.0       0.0       0.0       0.0       1.1
 6 H  s               3.6       0.0       0.0       0.0       0.0       9.8
 7 H  s               1.5       0.0       0.0       0.0       0.0      10.2
 8 H  s               9.7       0.0       0.0       0.0       0.0       9.8
 9 H  s               3.6       0.0       0.0       0.0       0.0       9.8
10 H  s               1.5       0.0       0.0       0.0       0.0      10.2
11 H  s               9.7       0.0       0.0       0.0       0.0       9.8

                     24        25        26        27        28        29   
                   0.11803   0.11819   0.11990   0.15518   0.15570   0.16593
                   0.00000   0.00000   0.00000   0.00000   0.00000   0.00000
                  --------  --------  --------  --------  --------  --------
 0 C  s               0.5       0.2       1.9       0.0      11.5       4.4
 0 C  pz              4.4      11.6       0.0       0.0       0.0       0.0
 0 C  px              1.8       0.9       7.2       0.0       2.9       1.6
 0 C  py              0.4       0.1       0.2       1.7       0.1       0.0
 0 C  dz2             0.0       0.0       0.0       0.0       0.8       0.3
 0 C  dxz             0.2       0.5       0.0       0.0       0.0       0.0
 0 C  dx2y2           0.2       0.1       0.4       0.1       0.4       0.1
 0 C  dxy             0.1       0.0       0.3       0.6       0.0       0.0
 1 C  s               2.0       0.7       0.0       8.6       2.7       4.4
 1 C  pz              4.4      11.6       0.0       0.0       0.0       0.0
 1 C  px              1.0       0.4       0.4       0.2       1.6       0.2
 1 C  py              6.4       2.5       0.1       2.3       0.4       1.3
 1 C  dz2             0.0       0.0       0.0       0.6       0.2       0.3
 1 C  dyz             0.1       0.4       0.0       0.0       0.0       0.0
 1 C  dx2y2           0.3       0.1       0.1       0.5       0.1       0.1
 1 C  dxy             0.2       0.1       0.2       0.0       0.6       0.1
 2 C  s               0.4       0.1       2.1       8.6       3.0       4.4
 2 C  pz              4.3      11.7       0.0       0.0       0.0       0.0
 2 C  px              0.6       0.2       3.5       0.5       1.7       0.6
 2 C  py              1.4       0.4       4.5       2.1       0.3       1.0
 2 C  dz2             0.0       0.0       0.0       0.6       0.2       0.3
 2 C  dxz             0.1       0.2       0.0       0.0       0.0       0.0
 2 C  dyz             0.1       0.3       0.0       0.0       0.0       0.0
 2 C  dx2y2           0.1       0.0       0.2       0.3       0.4       0.0
 2 C  dxy             0.2       0.1       0.5       0.2       0.2       0.1
 3 C  s               0.5       0.2       1.9       0.0      11.5       4.4
 3 C  pz              4.4      11.6       0.0       0.0       0.0       0.0
 3 C  px              1.8       0.8       7.2       0.0       2.9       1.6
 3 C  py              0.3       0.1       0.2       1.7       0.1       0.0
 3 C  dz2             0.0       0.0       0.0       0.0       0.8       0.3
 3 C  dxz             0.2       0.5       0.0       0.0       0.0       0.0
 3 C  dx2y2           0.2       0.1       0.4       0.1       0.4       0.1
 3 C  dxy             0.1       0.0       0.3       0.6       0.0       0.0
 4 C  s               2.0       0.8       0.0       8.7       2.7       4.4
 4 C  pz              4.3      11.7       0.0       0.0       0.0       0.0
 4 C  px              0.9       0.4       0.4       0.2       1.6       0.2
 4 C  py              6.5       2.3       0.1       2.3       0.4       1.3
 4 C  dz2             0.0       0.0       0.0       0.6       0.2       0.3
 4 C  dyz             0.2       0.4       0.0       0.0       0.0       0.0
 4 C  dx2y2           0.3       0.1       0.1       0.5       0.1       0.1
 4 C  dxy             0.2       0.1       0.2       0.0       0.6       0.1
 5 C  s               0.4       0.1       2.1       8.6       3.0       4.4
 5 C  pz              4.4      11.6       0.0       0.0       0.0       0.0
 5 C  px              0.6       0.2       3.5       0.5       1.7       0.6
 5 C  py              1.3       0.4       4.5       2.1       0.3       1.0
 5 C  dz2             0.0       0.0       0.0       0.6       0.2       0.3
 5 C  dxz             0.1       0.2       0.0       0.0       0.0       0.0
 5 C  dyz             0.1       0.3       0.0       0.0       0.0       0.0
 5 C  dx2y2           0.1       0.0       0.2       0.3       0.4       0.0
 5 C  dxy             0.2       0.1       0.5       0.2       0.2       0.1
 6 H  s               3.6       1.7      13.7       0.0      15.4      10.4
 7 H  s              14.0       5.2       0.0      11.4       3.6      10.1
 8 H  s               3.2       0.9      14.9      11.5       4.0      10.3
 9 H  s               3.6       1.7      13.6       0.0      15.5      10.4
10 H  s              14.0       5.2       0.0      11.4       3.6      10.0
11 H  s               3.2       0.9      14.8      11.5       4.0      10.3

                     30        31        32        33        34        35   
                   0.26544   0.26687   0.27991   0.28080   0.43582   0.48249
                   0.00000   0.00000   0.00000   0.00000   0.00000   0.00000
                  --------  --------  --------  --------  --------  --------
 0 C  s               1.0       3.7       1.1       3.7       0.0       0.0
 0 C  pz              0.0       0.0       0.0       0.0       0.0      16.7
 0 C  px              2.3       6.3       1.3       1.3       0.4       0.0
 0 C  py              5.7       2.1      10.5       3.9      14.1       0.0
 0 C  dz2             0.2       0.8       0.1       0.5       0.0       0.0
 0 C  dx2y2           0.1       0.8       0.0       3.2       0.2       0.0
 0 C  dxy             4.4       0.7       4.2       0.3       2.0       0.0
 1 C  s               4.6       0.0       1.2       3.4       0.0       0.0
 1 C  pz              0.0       0.0       0.0       0.0       0.0      16.5
 1 C  px              1.2       6.6       8.2       4.9      12.2       0.0
 1 C  py              7.5       1.1       3.1       0.8       1.9       0.0
 1 C  dz2             1.0       0.0       0.2       0.4       0.0       0.0
 1 C  dx2y2           0.3       2.5       0.3       3.5       1.1       0.0
 1 C  dxy             0.1       3.2       3.8       0.0       1.3       0.0
 2 C  s               1.3       3.4       4.8       0.0       0.0       0.0
 2 C  pz              0.0       0.0       0.0       0.0       0.0      16.7
 2 C  px              5.6       2.4       0.9       9.0       8.8       0.0
 2 C  py              2.4       6.0       1.5       5.7       5.7       0.0
[...]
 4 C  py              0.3       1.0       2.8       0.2       0.9       1.1
 4 C  dz2             0.0       0.0       3.4       2.0       3.8       2.4
 4 C  dx2y2           6.4       6.4       0.1       3.9       6.1       0.7
 4 C  dxy             7.9       5.3       0.1       2.1       6.0       4.9
 5 C  s               0.0       1.0       7.9       0.1       0.7       0.0
 5 C  px              1.4       0.4       1.3       0.9       0.2       0.9
 5 C  py              1.0       0.7       2.0       0.2       0.9       0.7
 5 C  dz2             0.0       0.0       3.3       1.0       4.8       0.0
 5 C  dx2y2          13.6       0.5       0.0       0.4       0.5      20.7
 5 C  dxy             0.6      11.2       0.2       2.8      14.4       0.9
 6 H  s               0.0       2.9       2.0       6.2       0.0       0.5
 7 H  s               0.0       2.9       2.0       2.1       4.2       0.5
 8 H  s               0.0       2.9       1.9       1.1       5.2       0.0
 9 H  s               0.0       2.9       2.0       6.2       0.0       0.5
10 H  s               0.0       2.9       2.0       2.1       4.2       0.5
11 H  s               0.0       2.9       1.9       1.1       5.2       0.0

                     78        79        80        81        82        83   
                   1.97714   2.06701   2.06746   2.06784   2.06824   2.21909
                   0.00000   0.00000   0.00000   0.00000   0.00000   0.00000
                  --------  --------  --------  --------  --------  --------
 0 C  s               1.0       0.0       0.0       1.6       2.8       0.0
 0 C  pz              0.0       0.3       1.2       0.0       0.0       0.3
 0 C  px              0.6       0.0       0.0       1.2       1.5       0.0
 0 C  py              1.0       0.0       0.0       1.1       1.0       0.0
 0 C  dz2             0.8       0.0       0.0       6.5      11.2       0.0
 0 C  dxz             0.0       7.1      17.2       0.0       0.0       0.4
 0 C  dyz             0.0       3.9       3.7       0.0       0.0      10.5
 0 C  dx2y2           2.9       0.0       0.0       1.2       3.7       0.0
 0 C  dxy            13.1       0.0       0.0       1.4       0.0       0.0
 1 C  s               0.8       0.0       0.0       4.3       0.1       0.0
 1 C  pz              0.0       1.5       0.0       0.0       0.0       0.5
 1 C  px              0.9       0.0       0.0       0.3       1.8       0.0
 1 C  py              0.7       0.0       0.0       2.4       0.2       0.0
 1 C  dz2             0.7       0.0       0.0      17.5       0.3       0.0
 1 C  dxz             0.0       3.5       5.9       0.0       0.0       7.6
 1 C  dyz             0.0      21.1       1.3       0.0       0.0       0.2
 1 C  dx2y2           9.5       0.0       0.0       2.6       0.8       0.0
 1 C  dxy             7.4       0.0       0.0       2.7       0.3       0.0
 2 C  s               3.5       0.0       0.0       0.6       3.7       0.0
 2 C  pz              0.0       0.4       1.1       0.0       0.0       0.0
 2 C  px              0.8       0.0       0.0       1.6       0.6       0.0
 2 C  py              1.1       0.0       0.0       0.5       2.0       0.0
 2 C  dz2             3.1       0.0       0.0       2.6      15.2       0.0
 2 C  dxz             0.0      11.7       2.4       0.0       0.0      18.5
 2 C  dyz             0.0       0.4      17.4       0.0       0.0      12.0
 2 C  dx2y2           0.0       0.0       0.0       1.2       0.0       0.0
 2 C  dxy             1.0       0.0       0.0       0.4       4.7       0.0
 3 C  s               1.0       0.0       0.0       1.6       2.8       0.0
 3 C  pz              0.0       0.3       1.2       0.0       0.0       0.3
 3 C  px              0.6       0.0       0.0       1.2       1.5       0.0
 3 C  py              1.0       0.0       0.0       1.1       1.0       0.0
 3 C  dz2             0.8       0.0       0.0       6.6      11.2       0.0
 3 C  dxz             0.0       7.1      17.2       0.0       0.0       0.4
 3 C  dyz             0.0       3.9       3.7       0.0       0.0      10.5
 3 C  dx2y2           2.9       0.0       0.0       1.2       3.7       0.0
 3 C  dxy            13.1       0.0       0.0       1.4       0.0       0.0
 4 C  s               0.8       0.0       0.0       4.3       0.1       0.0
 4 C  pz              0.0       1.5       0.0       0.0       0.0       0.5
 4 C  px              0.9       0.0       0.0       0.3       1.8       0.0
 4 C  py              0.7       0.0       0.0       2.4       0.2       0.0
 4 C  dz2             0.7       0.0       0.0      17.5       0.3       0.0
 4 C  dxz             0.0       3.5       5.9       0.0       0.0       7.6
 4 C  dyz             0.0      21.1       1.3       0.0       0.0       0.2
 4 C  dx2y2           9.6       0.0       0.0       2.6       0.8       0.0
 4 C  dxy             7.4       0.0       0.0       2.7       0.3       0.0
 5 C  s               3.5       0.0       0.0       0.6       3.7       0.0
 5 C  pz              0.0       0.4       1.1       0.0       0.0       0.0
 5 C  px              0.8       0.0       0.0       1.6       0.6       0.0
 5 C  py              1.1       0.0       0.0       0.5       2.0       0.0
 5 C  dz2             3.1       0.0       0.0       2.6      15.2       0.0
 5 C  dxz             0.0      11.7       2.4       0.0       0.0      18.5
 5 C  dyz             0.0       0.4      17.4       0.0       0.0      12.0
 5 C  dx2y2           0.0       0.0       0.0       1.2       0.0       0.0
 5 C  dxy             1.0       0.0       0.0       0.4       4.7       0.0
 6 H  s               0.2       0.0       0.0       0.0       0.1       0.0
 7 H  s               0.1       0.0       0.0       0.1       0.0       0.0
 8 H  s               0.7       0.0       0.0       0.0       0.1       0.0
 9 H  s               0.2       0.0       0.0       0.0       0.1       0.0
10 H  s               0.1       0.0       0.0       0.1       0.0       0.0
11 H  s               0.7       0.0       0.0       0.0       0.1       0.0

                     84        85        86        87        88        89   
                   2.21938   2.23097   2.45727   2.45800   2.55510   2.60015
                   0.00000   0.00000   0.00000   0.00000   0.00000   0.00000
                  --------  --------  --------  --------  --------  --------
 0 C  s               0.0       0.0       6.1       0.1       0.0       0.8
 0 C  pz              0.2       1.0       0.0       0.0       0.0       0.0
 0 C  px              0.0       0.0       1.0       0.0       0.0       0.3
 0 C  py              0.0       0.0       0.0       0.4       0.0       0.0
 0 C  dz2             0.0       0.0      18.6       0.2       0.0       2.0
 0 C  dxz             2.2      15.6       0.0       0.0       0.4       0.0
 0 C  dyz            19.4       0.4       0.0       0.0      16.3       0.0
 0 C  dx2y2           0.0       0.0       1.4       0.5       0.0      23.6
 0 C  dxy             0.0       0.0       0.3       3.1       0.0       2.3
 1 C  s               0.0       0.0       1.1       5.1       0.0       0.2
 1 C  pz              0.1       0.9       0.0       0.0       0.0       0.0
 1 C  px              0.0       0.0       0.2       0.4       0.0       1.3
 1 C  py              0.0       0.0       0.4       0.6       0.0       0.4
 1 C  dz2             0.0       0.0       3.3      15.4       0.0       0.6
 1 C  dxz            19.7       1.7       0.0       0.0      14.5       0.0
 1 C  dyz             5.5      13.7       0.0       0.0       2.2       0.0
 1 C  dx2y2           0.0       0.0       2.5       0.1       0.0       6.3
 1 C  dxy             0.0       0.0       0.8       2.0       0.0       1.9
 2 C  s               0.0       0.0       2.0       4.1       0.0       0.2
 2 C  pz              0.5       1.0       0.0       0.0       0.0       0.0
 2 C  px              0.0       0.0       0.0       0.7       0.0       0.9
 2 C  py              0.0       0.0       0.6       0.2       0.0       0.9
 2 C  dz2             0.0       0.0       6.2      12.5       0.0       0.4
 2 C  dxz             1.6       5.6       0.0       0.0      10.1       0.0
 2 C  dyz             0.8      10.1       0.0       0.0       6.6       0.0
 2 C  dx2y2           0.0       0.0       2.8       0.7       0.0       1.4
 2 C  dxy             0.0       0.0       0.2       1.7       0.0       4.4
 3 C  s               0.0       0.0       6.1       0.1       0.0       0.8
 3 C  pz              0.2       1.0       0.0       0.0       0.0       0.0
 3 C  px              0.0       0.0       1.0       0.0       0.0       0.3
 3 C  py              0.0       0.0       0.0       0.4       0.0       0.0
 3 C  dz2             0.0       0.0      18.6       0.2       0.0       2.0
 3 C  dxz             2.2      15.6       0.0       0.0       0.4       0.0
 3 C  dyz            19.4       0.4       0.0       0.0      16.3       0.0
 3 C  dx2y2           0.0       0.0       1.4       0.5       0.0      23.5
 3 C  dxy             0.0       0.0       0.3       3.1       0.0       2.3
 4 C  s               0.0       0.0       1.1       5.1       0.0       0.2
 4 C  pz              0.1       0.9       0.0       0.0       0.0       0.0
 4 C  px              0.0       0.0       0.2       0.4       0.0       1.3
 4 C  py              0.0       0.0       0.4       0.6       0.0       0.4
 4 C  dz2             0.0       0.0       3.3      15.4       0.0       0.6
 4 C  dxz            19.7       1.7       0.0       0.0      14.5       0.0
 4 C  dyz             5.5      13.7       0.0       0.0       2.2       0.0
 4 C  dx2y2           0.0       0.0       2.5       0.1       0.0       6.3
 4 C  dxy             0.0       0.0       0.8       2.0       0.0       1.9
 5 C  s               0.0       0.0       2.0       4.1       0.0       0.2
 5 C  pz              0.5       1.0       0.0       0.0       0.0       0.0
 5 C  px              0.0       0.0       0.0       0.7       0.0       0.9
 5 C  py              0.0       0.0       0.6       0.2       0.0       0.9
 5 C  dz2             0.0       0.0       6.2      12.5       0.0       0.4
 5 C  dxz             1.6       5.6       0.0       0.0      10.1       0.0
 5 C  dyz             0.8      10.1       0.0       0.0       6.6       0.0
 5 C  dx2y2           0.0       0.0       2.8       0.7       0.0       1.4
 5 C  dxy             0.0       0.0       0.2       1.7       0.0       4.4
 6 H  s               0.0       0.0       1.5       0.0       0.0       1.4
 7 H  s               0.0       0.0       0.3       1.3       0.0       0.4
 8 H  s               0.0       0.0       0.5       1.0       0.0       0.3
 9 H  s               0.0       0.0       1.5       0.0       0.0       1.4
10 H  s               0.0       0.0       0.3       1.3       0.0       0.4
11 H  s               0.0       0.0       0.5       1.0       0.0       0.3

                     90        91        92        93        94        95   
                   2.60045   2.63078   2.63142   2.67592   2.92185   3.29300
                   0.00000   0.00000   0.00000   0.00000   0.00000   0.00000
                  --------  --------  --------  --------  --------  --------
 0 C  s               0.0       0.6       1.9       4.8       0.0       1.9
 0 C  px              0.0       0.6       0.6       0.4       0.1       0.1
 0 C  py              2.2       2.5       1.1       0.0       3.4       0.0
 0 C  dz2             0.0       0.2       0.7       8.3       0.0       1.3
 0 C  dx2y2           0.0       1.9       0.5       2.2       1.2      11.6
 0 C  dxy             0.7      17.4       5.4       0.2      11.9       1.2
 1 C  s               0.6       0.7       1.8       4.8       0.0       1.9
 1 C  px              0.8       1.8       1.5       0.1       3.0       0.0
 1 C  py              0.1       1.2       0.2       0.3       0.4       0.1
 1 C  dz2             1.4       0.2       0.6       8.4       0.0       1.3
 1 C  dx2y2           8.2       8.5       2.9       1.3       5.9       7.0
 1 C  dxy            10.1       9.9       3.9       1.1       7.3       5.8
 2 C  s               0.7       2.5       0.0       4.8       0.0       1.9
 2 C  px              0.5       0.4       2.3       0.2       2.1       0.1
 2 C  py              0.1       0.7       1.4       0.2       1.4       0.1
 2 C  dz2             1.6       0.8       0.0       8.4       0.0       1.3
 2 C  dx2y2           0.4       0.0      24.0       0.1      12.6       0.6
 2 C  dxy            20.4       0.0       1.1       2.3       0.6      12.2
 3 C  s               0.0       0.6       1.9       4.8       0.0       1.9
 3 C  px              0.0       0.6       0.6       0.4       0.1       0.1
 3 C  py              2.2       2.5       1.1       0.0       3.4       0.0
 3 C  dz2             0.0       0.2       0.7       8.3       0.0       1.3
 3 C  dx2y2           0.0       1.9       0.5       2.2       1.2      11.6
 3 C  dxy             0.7      17.4       5.4       0.2      11.9       1.2
 4 C  s               0.6       0.7       1.8       4.8       0.0       1.9
 4 C  px              0.8       1.8       1.5       0.1       3.0       0.0
 4 C  py              0.1       1.2       0.2       0.3       0.4       0.1
 4 C  dz2             1.4       0.2       0.6       8.4       0.0       1.3
 4 C  dx2y2           8.2       8.5       2.9       1.3       5.9       7.0
 4 C  dxy            10.1       9.9       3.9       1.1       7.3       5.8
 5 C  s               0.7       2.5       0.0       4.8       0.0       1.9
 5 C  px              0.5       0.4       2.3       0.2       2.1       0.1
 5 C  py              0.1       0.7       1.4       0.2       1.4       0.1
 5 C  dz2             1.6       0.8       0.0       8.4       0.0       1.3
 5 C  dx2y2           0.4       0.0      24.0       0.1      12.6       0.6
 5 C  dxy            20.4       0.0       1.1       2.3       0.6      12.2
 6 H  s               0.0       0.0       0.1       0.7       0.0       0.5
 7 H  s               1.0       0.0       0.1       0.7       0.0       0.5
 8 H  s               1.1       0.1       0.0       0.7       0.0       0.5
 9 H  s               0.0       0.0       0.1       0.7       0.0       0.5
10 H  s               1.0       0.0       0.1       0.7       0.0       0.5
11 H  s               1.1       0.1       0.0       0.7       0.0       0.5



                      *****************************
                      * MAYER POPULATION ANALYSIS *
                      *****************************

  NA   - Mulliken gross atomic population
  ZA   - Total nuclear charge
  QA   - Mulliken gross atomic charge
  VA   - Mayer's total valence
  BVA  - Mayer's bonded valence
  FA   - Mayer's free valence

  ATOM       NA         ZA         QA         VA         BVA        FA
  0 C      6.1419     6.0000    -0.1419     3.9483     3.9483    -0.0000
  1 C      6.1329     6.0000    -0.1329     3.9505     3.9505     0.0000
  2 C      6.1371     6.0000    -0.1371     3.9475     3.9475    -0.0000
  3 C      6.1419     6.0000    -0.1419     3.9483     3.9483    -0.0000
  4 C      6.1329     6.0000    -0.1329     3.9505     3.9505    -0.0000
  5 C      6.1371     6.0000    -0.1371     3.9475     3.9475     0.0000
  6 H      0.8602     1.0000     0.1398     0.9343     0.9343    -0.0000
  7 H      0.8662     1.0000     0.1338     0.9361     0.9361    -0.0000
  8 H      0.8617     1.0000     0.1383     0.9346     0.9346    -0.0000
  9 H      0.8602     1.0000     0.1398     0.9343     0.9343     0.0000
 10 H      0.8662     1.0000     0.1338     0.9361     0.9361    -0.0000
 11 H      0.8617     1.0000     0.1383     0.9346     0.9346    -0.0000

  Mayer bond orders larger than 0.100000
B(  0-C ,  1-C ) :   1.4541 B(  0-C ,  3-C ) :   0.1003 B(  0-C ,  5-C ) :   1.4542 
B(  0-C ,  6-H ) :   0.9206 B(  1-C ,  2-C ) :   1.4540 B(  1-C ,  7-H ) :   0.9229 
B(  2-C ,  3-C ) :   1.4541 B(  2-C ,  8-H ) :   0.9208 B(  3-C ,  4-C ) :   1.4541 
B(  3-C ,  9-H ) :   0.9206 B(  4-C ,  5-C ) :   1.4540 B(  4-C , 10-H ) :   0.9229 
B(  5-C , 11-H ) :   0.9208 

-------
TIMINGS
-------

Total SCF time: 0 days 0 hours 0 min 2 sec 

Total time                  ....       2.511 sec
Sum of individual times     ....       2.326 sec  ( 92.6%)

Fock matrix formation       ....       1.780 sec  ( 70.9%)
  Split-RI-J                ....       1.049 sec  ( 58.9% of F)
  XC integration            ....       0.585 sec  ( 32.8% of F)
    Basis function eval.    ....       0.150 sec  ( 25.6% of XC)
    Density eval.           ....       0.102 sec  ( 17.4% of XC)
    XC-Functional eval.     ....       0.051 sec  (  8.7% of XC)
    XC-Potential eval.      ....       0.152 sec  ( 26.0% of XC)
Diagonalization             ....       0.026 sec  (  1.0%)
Density matrix formation    ....       0.002 sec  (  0.1%)
Population analysis         ....       0.059 sec  (  2.4%)
Initial guess               ....       0.007 sec  (  0.3%)
Orbital Transformation      ....       0.000 sec  (  0.0%)
Orbital Orthonormalization  ....       0.002 sec  (  0.1%)
DIIS solution               ....       0.016 sec  (  0.6%)
Grid generation             ....       0.435 sec  ( 17.3%)

-------------------------   --------------------
FINAL SINGLE POINT ENERGY      -232.235685651970
-------------------------   --------------------

                                *** OPTIMIZATION RUN DONE ***

                            ***************************************
                            *     ORCA property calculations      *
                            ***************************************

                                    ---------------------
                                    Active property flags
                                    ---------------------
   (+) Dipole Moment


------------------------------------------------------------------------------
                       ORCA ELECTRIC PROPERTIES CALCULATION
------------------------------------------------------------------------------

Dipole Moment Calculation                       ... on
Quadrupole Moment Calculation                   ... off
Polarizability Calculation                      ... off
GBWName                                         ... benzene_0_1_bp86_6-31gpol.opt.gbw
Electron density file                           ... benzene_0_1_bp86_6-31gpol.opt.scfp
The origin for moment calculation is the CENTER OF MASS  = ( 0.009031, -0.010381  0.000946)

-------------
DIPOLE MOMENT
-------------
                                X             Y             Z
Electronic contribution:      0.00000       0.00004      -0.00000
Nuclear contribution   :      0.00000      -0.00004       0.00000
                        -----------------------------------------
Total Dipole Moment    :      0.00001      -0.00000       0.00000
                        -----------------------------------------
Magnitude (a.u.)       :      0.00001
Magnitude (Debye)      :      0.00002



--------------------
Rotational spectrum 
--------------------
 
Rotational constants in cm-1:     0.187435     0.187358     0.093698 
Rotational constants in MHz :  5619.161070  5616.840053  2809.000163 

 Dipole components along the rotational axes: 
x,y,z [a.u.] :     0.000007     0.000000     0.000001 
x,y,z [Debye]:     0.000018     0.000000     0.000002 

 

Timings for individual modules:

Sum of individual times         ...       36.921 sec (=   0.615 min)
GTO integral calculation        ...        8.402 sec (=   0.140 min)  22.8 %
SCF iterations                  ...       19.036 sec (=   0.317 min)  51.6 %
SCF Gradient evaluation         ...        9.271 sec (=   0.155 min)  25.1 %
Geometry relaxation             ...        0.212 sec (=   0.004 min)   0.6 %
                             ****ORCA TERMINATED NORMALLY****
TOTAL RUN TIME: 0 days 0 hours 0 minutes 39 seconds 194 msec
