
                                 *****************
                                 * O   R   C   A *
                                 *****************

           --- An Ab Initio, DFT and Semiempirical electronic structure package ---

                  #######################################################
                  #                        -***-                        #
                  #          Department of theory and spectroscopy      #
                  #               Directorship: Frank Neese             #
                  #        Max Planck Institute fuer Kohlenforschung    #
                  #                Kaiser Wilhelm Platz 1               #
                  #                 D-45470 Muelheim/Ruhr               #
                  #                      Germany                        #
                  #                                                     #
                  #                  All rights reserved                #
                  #                        -***-                        #
                  #######################################################


                         Program Version 4.2.0 -  RELEASE  -


 With contributions from (in alphabetic order):
   Daniel Aravena         : Magnetic Suceptibility
   Michael Atanasov       : Ab Initio Ligand Field Theory (pilot matlab implementation)
   Alexander A. Auer      : GIAO ZORA, VPT2
   Ute Becker             : Parallelization
   Giovanni Bistoni       : ED, misc. LED, open-shell LED, HFLED
   Martin Brehm           : Molecular dynamics
   Dmytro Bykov           : SCF Hessian
   Vijay G. Chilkuri      : MRCI spin determinant printing, contributions to CSF-ICE
   Dipayan Datta          : RHF DLPNO-CCSD density
   Achintya Kumar Dutta   : EOM-CC, STEOM-CC
   Dmitry Ganyushin       : Spin-Orbit,Spin-Spin,Magnetic field MRCI
   Miquel Garcia          : C-PCM Hessian, Gaussian charge scheme
   Yang Guo               : DLPNO-NEVPT2, CIM, IAO-localization
   Andreas Hansen         : Spin unrestricted coupled pair/coupled cluster methods
   Benjamin Helmich-Paris : CASSCF linear response (MC-RPA)
   Lee Huntington         : MR-EOM, pCC
   Robert Izsak           : Overlap fitted RIJCOSX, COSX-SCS-MP3, EOM
   Christian Kollmar      : KDIIS, OOCD, Brueckner-CCSD(T), CCSD density
   Simone Kossmann        : Meta GGA functionals, TD-DFT gradient, OOMP2, MP2 Hessian
   Martin Krupicka        : AUTO-CI
   Lucas Lang             : DCDCAS
   Dagmar Lenk            : GEPOL surface, SMD
   Dimitrios Liakos       : Extrapolation schemes; Compound Job, initial MDCI parallelization
   Dimitrios Manganas     : Further ROCIS development; embedding schemes
   Dimitrios Pantazis     : SARC Basis sets
   Taras Petrenko         : DFT Hessian,TD-DFT gradient, ASA, ECA, R-Raman, ABS, FL, XAS/XES, NRVS
   Peter Pinski           : DLPNO-MP2, DLPNO-MP2 Gradient
   Christoph Reimann      : Effective Core Potentials
   Marius Retegan         : Local ZFS, SOC
   Christoph Riplinger    : Optimizer, TS searches, QM/MM, DLPNO-CCSD(T), (RO)-DLPNO pert. Triples
   Tobias Risthaus        : Range-separated hybrids, TD-DFT gradient, RPA, STAB
   Michael Roemelt        : Original ROCIS implementation
   Masaaki Saitow         : Open-shell DLPNO-CCSD energy and density
   Barbara Sandhoefer     : DKH picture change effects
   Avijit Sen             : IP-ROCIS
   Kantharuban Sivalingam : CASSCF convergence, NEVPT2, FIC-MRCI
   Bernardo de Souza      : ESD, SOC TD-DFT
   Georgi Stoychev        : AutoAux, RI-MP2 NMR
   Willem Van den Heuvel  : Paramagnetic NMR
   Boris Wezisla          : Elementary symmetry handling
   Frank Wennmohs         : Technical directorship


 We gratefully acknowledge several colleagues who have allowed us to
 interface, adapt or use parts of their codes:
   Stefan Grimme, W. Hujo, H. Kruse,             : VdW corrections, initial TS optimization,
                  C. Bannwarth                     DFT functionals, gCP, sTDA/sTD-DF
   Ed Valeev, F. Pavosevic, A. Kumar             : LibInt (2-el integral package), F12 methods
   Garnet Chan, S. Sharma, J. Yang, R. Olivares  : DMRG
   Ulf Ekstrom                                   : XCFun DFT Library
   Mihaly Kallay                                 : mrcc  (arbitrary order and MRCC methods)
   Andreas Klamt, Michael Diedenhofen            : otool_cosmo (COSMO solvation model)
   Jiri Pittner, Ondrej Demel                    : Mk-CCSD
   Frank Weinhold                                : gennbo (NPA and NBO analysis)
   Christopher J. Cramer and Donald G. Truhlar   : smd solvation model
   Lars Goerigk                                  : TD-DFT with DH, B97 family of functionals
   V. Asgeirsson, H. Jonsson                     : NEB implementation
   FAccTs GmbH                                   : IRC, NEB, NEB-TS, Multilevel, MM, QM/MM, CI optimization
   S Lehtola, MJT Oliveira, MAL Marques          : LibXC Library


 Your calculation uses the libint2 library for the computation of 2-el integrals
 For citations please refer to: http://libint.valeyev.net

 Your ORCA version has been built with support for libXC version: 4.2.3
 For citations please refer to: https://tddft.org/programs/libxc/

 This ORCA versions uses:
   CBLAS   interface :  Fast vector & matrix operations
   LAPACKE interface :  Fast linear algebra routines
   SCALAPACK package :  Parallel linear algebra routines




***************************************
The coordinates will be read from file: benzene_0_1_bp86_6-31gpol.opt.xyz
***************************************


----- Orbital basis set information -----
Your calculation utilizes the basis: def2-SVP
   F. Weigend and R. Ahlrichs, Phys. Chem. Chem. Phys. 7, 3297 (2005).

----- AuxJ basis set information -----
Your calculation utilizes the AutoAux generation procedure.
  G. L. Stoychev, A. A. Auer, F. Neese, J. Chem. Theory Comput. 13, 554 (2017)

----- AuxC basis set information -----
Your calculation utilizes the AutoAux generation procedure.
  G. L. Stoychev, A. A. Auer, F. Neese, J. Chem. Theory Comput. 13, 554 (2017)

----- AuxJK basis set information -----
Your calculation utilizes the AutoAux generation procedure.
  G. L. Stoychev, A. A. Auer, F. Neese, J. Chem. Theory Comput. 13, 554 (2017)

================================================================================
                                        WARNINGS
                       Please study these warnings very carefully!
================================================================================

INFO   : Checking CIS options ...
  ===> : (D) CORRECTION FOUND - SETTING MODE=3
  ===> : JK MODE FOUND - ACTIVATING RI-MP2 CODE
  ===> : MP2 AND CIS FOUND - CHECKING
WARNING: CIS(D) and MP2 runs must have the same orbital window
  ===> : adjusting orbital windows

WARNING: No MP2 level density has been requested!
         To caclulate MP2 level properties use
         %mp2 Density relaxed end
         or
         %mp2 Density unrelaxed end
         Otherwise for double-hybrid DFT only the energy is correct!

WARNING:  You are using a Range-Separated Double Hybrid functional with Doubles Correction 
          Changing Mode to AOINTS 


WARNING: CIS/ROCIS methods need fully converged wavefunctions
  ===> : Setting SCFConvForced true
         You can overwrite this default with %scf ConvForced false 


INFO   : the flag for use of LIBINT has been found!

================================================================================
                                       INPUT FILE
================================================================================
NAME = benzene_0_1_wb2plyp_def2-svp.tddft.inp
|  1> !uks wb2plyp def2-svp tightscf
|  2> !autoaux
|  3> !normalprint
|  4> !pal4
|  5> 
|  6> %scf
|  7>   maxiter 500
|  8> end
|  9> 
| 10> %tddft
| 11>   nroots 10
| 12> end
| 13> 
| 14> *xyzfile 0 1 benzene_0_1_bp86_6-31gpol.opt.xyz
| 15> 
| 16>                          ****END OF INPUT****
================================================================================

                       ****************************
                       * Single Point Calculation *
                       ****************************

---------------------------------
CARTESIAN COORDINATES (ANGSTROEM)
---------------------------------
  C      1.392214   -0.223483    0.005510
  C      0.509870   -1.315569   -0.008856
  C     -0.877466   -1.097910   -0.013889
  C     -1.382664    0.212515   -0.004507
  C     -0.500318    1.304570    0.009868
  C      0.887037    1.086920    0.014878
  H      2.474890   -0.393936    0.009536
  H      0.904025   -2.337891   -0.016204
  H     -1.565462   -1.950407   -0.025216
  H     -2.465351    0.382893   -0.008526
  H     -0.894438    2.326907    0.017327
  H      1.575013    1.939431    0.026088

----------------------------
CARTESIAN COORDINATES (A.U.)
----------------------------
  NO LB      ZA    FRAG     MASS         X           Y           Z
   0 C     6.0000    0    12.011    2.630903   -0.422322    0.010412
   1 C     6.0000    0    12.011    0.963515   -2.486065   -0.016735
   2 C     6.0000    0    12.011   -1.658171   -2.074750   -0.026245
   3 C     6.0000    0    12.011   -2.612857    0.401596   -0.008518
   4 C     6.0000    0    12.011   -0.945465    2.465281    0.018648
   5 C     6.0000    0    12.011    1.676257    2.053981    0.028115
   6 H     1.0000    0     1.008    4.676865   -0.744431    0.018021
   7 H     1.0000    0     1.008    1.708359   -4.417974   -0.030621
   8 H     1.0000    0     1.008   -2.958295   -3.685734   -0.047652
   9 H     1.0000    0     1.008   -4.658838    0.723562   -0.016111
  10 H     1.0000    0     1.008   -1.690242    4.397217    0.032744
  11 H     1.0000    0     1.008    2.976344    3.664993    0.049300

--------------------------------
INTERNAL COORDINATES (ANGSTROEM)
--------------------------------
 C      0   0   0     0.000000000000     0.00000000     0.00000000
 C      1   0   0     1.404061298289     0.00000000     0.00000000
 C      2   1   0     1.404315883431   120.02033606     0.00000000
 C      3   2   1     1.404467342813   119.99662141     0.00000000
 C      4   3   2     1.404038732659   119.98220394     0.00000000
 C      5   4   3     1.404333452301   120.02159381     0.00000000
 H      1   2   3     1.096019209465   119.98978325   179.99369558
 H      2   1   3     1.095698170579   119.98175376   179.99616356
 H      3   2   1     1.095543904457   119.98887715   179.99288275
 H      4   3   2     1.096018017388   120.02318693   179.99424205
 H      5   4   3     1.095699834445   119.98294739   180.00846882
 H      6   5   4     1.095541859173   119.98800940   179.99953148

---------------------------
INTERNAL COORDINATES (A.U.)
---------------------------
 C      0   0   0     0.000000000000     0.00000000     0.00000000
 C      1   0   0     2.653291329005     0.00000000     0.00000000
 C      2   1   0     2.653772425200   120.02033606     0.00000000
 C      3   2   1     2.654058641952   119.99662141     0.00000000
 C      4   3   2     2.653248686143   119.98220394     0.00000000
 C      5   4   3     2.653805625553   120.02159381     0.00000000
 H      1   2   3     2.071176143406   119.98978325   179.99369558
 H      2   1   3     2.070569467832   119.98175376   179.99616356
 H      3   2   1     2.070277947111   119.98887715   179.99288275
 H      4   3   2     2.071173890707   120.02318693   179.99424205
 H      5   4   3     2.070572612084   119.98294739   180.00846882
 H      6   5   4     2.070274082084   119.98800940   179.99953148

---------------------
BASIS SET INFORMATION
---------------------
There are 2 groups of distinct atoms

 Group   1 Type C   : 7s4p1d contracted to 3s2p1d pattern {511/31/1}
 Group   2 Type H   : 4s1p contracted to 2s1p pattern {31/1}

Atom   0C    basis set group =>   1
Atom   1C    basis set group =>   1
Atom   2C    basis set group =>   1
Atom   3C    basis set group =>   1
Atom   4C    basis set group =>   1
Atom   5C    basis set group =>   1
Atom   6H    basis set group =>   2
Atom   7H    basis set group =>   2
Atom   8H    basis set group =>   2
Atom   9H    basis set group =>   2
Atom  10H    basis set group =>   2
Atom  11H    basis set group =>   2
---------------------------------
AUXILIARY/J BASIS SET INFORMATION
---------------------------------
There are 2 groups of distinct atoms

 Group   1 Type C   : 14s11p10d2f contracted to 14s11p10d2f pattern {11111111111111/11111111111/1111111111/11}
 Group   2 Type H   : 9s2p1d contracted to 9s2p1d pattern {111111111/11/1}

Atom   0C    basis set group =>   1
Atom   1C    basis set group =>   1
Atom   2C    basis set group =>   1
Atom   3C    basis set group =>   1
Atom   4C    basis set group =>   1
Atom   5C    basis set group =>   1
Atom   6H    basis set group =>   2
Atom   7H    basis set group =>   2
Atom   8H    basis set group =>   2
Atom   9H    basis set group =>   2
Atom  10H    basis set group =>   2
Atom  11H    basis set group =>   2
---------------------------------
AUXILIARY/C BASIS SET INFORMATION
---------------------------------
There are 2 groups of distinct atoms

 Group   1 Type C   : 14s11p10d2f contracted to 14s11p10d2f pattern {11111111111111/11111111111/1111111111/11}
 Group   2 Type H   : 9s2p1d contracted to 9s2p1d pattern {111111111/11/1}

Atom   0C    basis set group =>   1
Atom   1C    basis set group =>   1
Atom   2C    basis set group =>   1
Atom   3C    basis set group =>   1
Atom   4C    basis set group =>   1
Atom   5C    basis set group =>   1
Atom   6H    basis set group =>   2
Atom   7H    basis set group =>   2
Atom   8H    basis set group =>   2
Atom   9H    basis set group =>   2
Atom  10H    basis set group =>   2
Atom  11H    basis set group =>   2
----------------------------------
AUXILIARY/JK BASIS SET INFORMATION
----------------------------------
There are 2 groups of distinct atoms

 Group   1 Type C   : 14s11p10d2f contracted to 14s11p10d2f pattern {11111111111111/11111111111/1111111111/11}
 Group   2 Type H   : 9s2p1d contracted to 9s2p1d pattern {111111111/11/1}

Atom   0C    basis set group =>   1
Atom   1C    basis set group =>   1
Atom   2C    basis set group =>   1
Atom   3C    basis set group =>   1
Atom   4C    basis set group =>   1
Atom   5C    basis set group =>   1
Atom   6H    basis set group =>   2
Atom   7H    basis set group =>   2
Atom   8H    basis set group =>   2
Atom   9H    basis set group =>   2
Atom  10H    basis set group =>   2
Atom  11H    basis set group =>   2

Checking for AutoStart:
The File: benzene_0_1_wb2plyp_def2-svp.tddft.gbw exists
Trying to determine its content:
     ... Fine, the file contains calculation information
     ... Fine, the calculation information was read
     ... Fine, the file contains a basis set
     ... Fine, the basis set was read
     ... Fine, the file contains a geometry
     ... Fine, the geometry was read
     ... Fine, the file contains a set of orbitals
     ... Fine, the orbitals can be read
     => possible old guess file was deleted
     => GBW file was renamed to GES file
     => GES file is set as startup file
     => Guess is set to MORead
     ... now leaving AutoStart



           ************************************************************
           *        Program running with 4 parallel MPI-processes     *
           *              working on a common directory               *
           ************************************************************
------------------------------------------------------------------------------
                           ORCA GTO INTEGRAL CALCULATION
------------------------------------------------------------------------------

                         BASIS SET STATISTICS AND STARTUP INFO

 # of primitive gaussian shells          ...  102
 # of primitive gaussian functions       ...  186
 # of contracted shells                  ...   54
 # of contracted basis functions         ...  114
 Highest angular momentum                ...    2
 Maximum contraction depth               ...    5
 Integral package used                   ... LIBINT
 Integral threshhold            Thresh   ...  2.500e-11
 Primitive cut-off              TCut     ...  2.500e-12


------------------------------ INTEGRAL EVALUATION ----------------------------


 * One electron integrals 
 Pre-screening matrix                    ... done
 Shell pair data                         ... done (   0.001 sec)



           ************************************************************
           *        Program running with 4 parallel MPI-processes     *
           *              working on a common directory               *
           ************************************************************
-------------------------------------------------------------------------------
                                 ORCA SCF
-------------------------------------------------------------------------------

------------
SCF SETTINGS
------------
Hamiltonian:
 Density Functional     Method          .... DFT(GTOs)
 Exchange Functional    Exchange        .... WB88
 Correlation Functional Correlation     .... LYP
 LDA part of GGA corr.  LDAOpt          .... VWN-3
 Gradients option       PostSCFGGA      .... off
 Hybrid DFT is turned on
   Fraction HF Exchange ScalHFX         ....  0.530000
   Scaling of DF-GGA-X  ScalDFX         ....  0.000000
   Scaling of DF-GGA-C  ScalDFC         ....  0.730000
   Scaling of DF-LDA-C  ScalLDAC        ....  0.730000
   Perturbative correction              ....  0.270000
   Density functional embedding theory  .... OFF
 Long-range corrected/Screened/Range-Separated Hybrid DFT is turned on
   Amount of maximum screened exact exchange              ....  0.470000
   Range separation parameter mu (erf(mu*r12)/r12)        ....  0.300000


General Settings:
 Integral files         IntName         .... benzene_0_1_wb2plyp_def2-svp.tddft
 Hartree-Fock type      HFTyp           .... UHF
 Total Charge           Charge          ....    0
 Multiplicity           Mult            ....    1
 Number of Electrons    NEL             ....   42
 Basis Dimension        Dim             ....  114
 Nuclear Repulsion      ENuc            ....    202.0010497832 Eh

Convergence Acceleration:
 DIIS                   CNVDIIS         .... on
   Start iteration      DIISMaxIt       ....    12
   Startup error        DIISStart       ....  0.200000
   # of expansion vecs  DIISMaxEq       ....     5
   Bias factor          DIISBfac        ....   1.050
   Max. coefficient     DIISMaxC        ....  10.000
 Newton-Raphson         CNVNR           .... off
 SOSCF                  CNVSOSCF        .... off
 Level Shifting         CNVShift        .... on
   Level shift para.    LevelShift      ....    0.2500
   Turn off err/grad.   ShiftErr        ....    0.0010
 Zerner damping         CNVZerner       .... off
 Static damping         CNVDamp         .... on
   Fraction old density DampFac         ....    0.7000
   Max. Damping (<1)    DampMax         ....    0.9800
   Min. Damping (>=0)   DampMin         ....    0.0000
   Turn off err/grad.   DampErr         ....    0.1000
 Fernandez-Rico         CNVRico         .... off

SCF Procedure:
 Maximum # iterations   MaxIter         ....   500
 SCF integral mode      SCFMode         .... Direct
   Integral package                     .... LIBINT
 Reset frequency        DirectResetFreq ....    20
 Integral Threshold     Thresh          ....  2.500e-11 Eh
 Primitive CutOff       TCut            ....  2.500e-12 Eh

Convergence Tolerance:
 Convergence Check Mode ConvCheckMode   .... Total+1el-Energy
 Convergence forced     ConvForced      .... 1
 Energy Change          TolE            ....  1.000e-08 Eh
 1-El. energy change                    ....  1.000e-05 Eh
 DIIS Error             TolErr          ....  5.000e-07


Diagonalization of the overlap matrix:
Smallest eigenvalue                        ... 3.358e-04
Time for diagonalization                   ...    0.003 sec
Threshold for overlap eigenvalues          ... 1.000e-08
Number of eigenvalues below threshold      ... 0
Time for construction of square roots      ...    0.004 sec
Total time needed                          ...    0.006 sec

---------------------
INITIAL GUESS: MOREAD
---------------------
Guess MOs are being read from file: benzene_0_1_wb2plyp_def2-svp.tddft.ges
Input Geometry matches current geometry (good)
Input basis set matches current basis set (good)
MOs were renormalized
MOs were reorthogonalized (Cholesky)
                      ------------------
                      INITIAL GUESS DONE (   0.0 sec)
                      ------------------
-------------------
DFT GRID GENERATION
-------------------

General Integration Accuracy     IntAcc      ...  4.340
Radial Grid Type                 RadialGrid  ... Gauss-Chebyshev
Angular Grid (max. acc.)         AngularGrid ... Lebedev-110
Angular grid pruning method      GridPruning ... 3 (G Style)
Weight generation scheme         WeightScheme... Becke
Basis function cutoff            BFCut       ...    1.0000e-11
Integration weight cutoff        WCut        ...    1.0000e-14
Grids for H and He will be reduced by one unit

# of grid points (after initial pruning)     ...  14700 (   0.0 sec)
# of grid points (after weights+screening)   ...  13800 (   0.0 sec)
nearest neighbour list constructed           ...    0.0 sec
Grid point re-assignment to atoms done       ...    0.0 sec
Grid point division into batches done        ...    0.0 sec
Reduced shell lists constructed in    0.0 sec

Total number of grid points                  ...    13800
Total number of batches                      ...      220
Average number of points per batch           ...       62
Average number of grid points per atom       ...     1150
Average number of shells per batch           ...    48.29 (89.42%)
Average number of basis functions per batch  ...   104.43 (91.60%)
Average number of large shells per batch     ...    42.86 (88.76%)
Average number of large basis fcns per batch ...    92.71 (88.78%)
Maximum spatial batch extension              ...   3.58,  3.80, 22.95 au
Average spatial batch extension              ...   0.48,  0.48,  1.15 au

Time for grid setup =    0.057 sec

--------------
SCF ITERATIONS
--------------
               ***  Starting incremental Fock matrix formation  ***

                         ----------------------------
                         !        ITERATION     0   !
                         ----------------------------
   Total Energy        :    -231.303587980012 Eh
   Energy Change       :    -231.303587980012 Eh
   MAX-DP              :       0.000000041788
   RMS-DP              :       0.000000002864
   Actual Damping      :       0.7000
   Actual Level Shift  :       0.2500 Eh
   Int. Num. El.       :    42.00303343 (UP=   21.00151672 DN=   21.00151672)
   Exchange            :   -12.25560858
   Correlation         :    -1.01011567

                 **** Energy Check signals convergence ****

               *****************************************************
               *                     SUCCESS                       *
               *           SCF CONVERGED AFTER   1 CYCLES          *
               *****************************************************

Setting up the final grid:

General Integration Accuracy     IntAcc      ...  4.670
Radial Grid Type                 RadialGrid  ... Gauss-Chebyshev
Angular Grid (max. acc.)         AngularGrid ... Lebedev-302
Angular grid pruning method      GridPruning ... 3 (G Style)
Weight generation scheme         WeightScheme... Becke
Basis function cutoff            BFCut       ...    1.0000e-11
Integration weight cutoff        WCut        ...    1.0000e-14
Grids for H and He will be reduced by one unit

# of grid points (after initial pruning)     ...  57636 (   0.0 sec)
# of grid points (after weights+screening)   ...  53466 (   0.0 sec)
nearest neighbour list constructed           ...    0.0 sec
Grid point re-assignment to atoms done       ...    0.0 sec
Grid point division into batches done        ...    0.2 sec
Reduced shell lists constructed in    0.3 sec

Total number of grid points                  ...    53466
Total number of batches                      ...      844
Average number of points per batch           ...       63
Average number of grid points per atom       ...     4456
Average number of shells per batch           ...    47.37 (87.73%)
Average number of basis functions per batch  ...   101.95 (89.43%)
Average number of large shells per batch     ...    40.81 (86.15%)
Average number of large basis fcns per batch ...    87.08 (85.42%)
Maximum spatial batch extension              ...   3.86,  3.72, 23.15 au
Average spatial batch extension              ...   0.33,  0.34,  0.51 au

Final grid set up in    0.4 sec
Final integration                            ... done (   0.2 sec)
Change in XC energy                          ...    -0.000356958
Integrated number of electrons               ...    41.999987434
Previous integrated no of electrons          ...    42.003033433

----------------
TOTAL SCF ENERGY
----------------

Total Energy       :         -231.30394494 Eh           -6294.10033 eV

Components:
Nuclear Repulsion  :          202.00104978 Eh            5496.72801 eV
Electronic Energy  :         -433.30499472 Eh          -11790.82834 eV
One Electron Energy:         -710.57153605 Eh          -19335.63450 eV
Two Electron Energy:          277.26654132 Eh            7544.80616 eV

Virial components:
Potential Energy   :         -460.30742672 Eh          -12525.60187 eV
Kinetic Energy     :          229.00348178 Eh            6231.50154 eV
Virial Ratio       :            2.01004554


DFT components:
N(Alpha)           :       20.999993716932 electrons
N(Beta)            :       20.999993716932 electrons
N(Total)           :       41.999987433864 electrons
E(X)               :      -12.255877735379 Eh       
E(C)               :       -1.010203472648 Eh       
E(XC)              :      -13.266081208027 Eh       
DFET-embed. en.    :        0.000000000000 Eh       

---------------
SCF CONVERGENCE
---------------

  Last Energy change         ...   -4.4025e-10  Tolerance :   1.0000e-08
  Last MAX-Density change    ...    1.9194e-08  Tolerance :   1.0000e-07
  Last RMS-Density change    ...    1.2850e-09  Tolerance :   5.0000e-09
  Last DIIS Error            ...    1.4119e-07  Tolerance :   5.0000e-07

             **** THE GBW FILE WAS UPDATED (benzene_0_1_wb2plyp_def2-svp.tddft.gbw) ****
             **** DENSITY FILE WAS UPDATED (benzene_0_1_wb2plyp_def2-svp.tddft.scfp) ****
             **** ENERGY FILE WAS UPDATED (benzene_0_1_wb2plyp_def2-svp.tddft.en.tmp) ****
----------------------
UHF SPIN CONTAMINATION
----------------------

Warning: in a DFT calculation there is little theoretical justification to 
         calculate <S**2> as in Hartree-Fock theory. We will do it anyways
         but you should keep in mind that the values have only limited relevance

Expectation value of <S**2>     :     0.000000
Ideal value S*(S+1) for S=0.0   :     0.000000
Deviation                       :     0.000000

             **** THE GBW FILE WAS UPDATED (benzene_0_1_wb2plyp_def2-svp.tddft.gbw) ****
             **** DENSITY FILE WAS UPDATED (benzene_0_1_wb2plyp_def2-svp.tddft.scfp) ****
----------------
ORBITAL ENERGIES
----------------
                 SPIN UP ORBITALS
  NO   OCC          E(Eh)            E(eV) 
   0   1.0000     -10.703410      -291.2546 
   1   1.0000     -10.703155      -291.2476 
   2   1.0000     -10.703100      -291.2462 
   3   1.0000     -10.702463      -291.2288 
   4   1.0000     -10.702410      -291.2274 
   5   1.0000     -10.702169      -291.2208 
   6   1.0000      -1.047350       -28.4998 
   7   1.0000      -0.925823       -25.1929 
   8   1.0000      -0.925723       -25.1902 
   9   1.0000      -0.761436       -20.7197 
  10   1.0000      -0.761275       -20.7154 
  11   1.0000      -0.669679       -18.2229 
  12   1.0000      -0.599362       -16.3095 
  13   1.0000      -0.588408       -16.0114 
  14   1.0000      -0.556999       -15.1567 
  15   1.0000      -0.556925       -15.1547 
  16   1.0000      -0.493695       -13.4341 
  17   1.0000      -0.470964       -12.8156 
  18   1.0000      -0.470875       -12.8132 
  19   1.0000      -0.346272        -9.4225 
  20   1.0000      -0.346211        -9.4209 
  21   0.0000       0.093716         2.5501 
  22   0.0000       0.093795         2.5523 
  23   0.0000       0.150560         4.0970 
  24   0.0000       0.191410         5.2085 
  25   0.0000       0.191935         5.2228 
  26   0.0000       0.229167         6.2359 
  27   0.0000       0.229290         6.2393 
  28   0.0000       0.250535         6.8174 
  29   0.0000       0.287063         7.8114 
  30   0.0000       0.403242        10.9728 
  31   0.0000       0.403857        10.9895 
  32   0.0000       0.419479        11.4146 
  33   0.0000       0.419592        11.4177 
  34   0.0000       0.483146        13.1471 
  35   0.0000       0.532804        14.4983 
  36   0.0000       0.543088        14.7782 
  37   0.0000       0.543272        14.7832 
  38   0.0000       0.563191        15.3252 
  39   0.0000       0.596519        16.2321 
  40   0.0000       0.614218        16.7137 
  41   0.0000       0.645616        17.5681 
  42   0.0000       0.645829        17.5739 
  43   0.0000       0.678342        18.4586 
  44   0.0000       0.683634        18.6026 
  45   0.0000       0.683674        18.6037 
  46   0.0000       0.753532        20.5047 
  47   0.0000       0.753964        20.5164 
  48   0.0000       0.787234        21.4217 
  49   0.0000       0.787556        21.4305 
  50   0.0000       0.817542        22.2465 
  51   0.0000       0.817797        22.2534 
  52   0.0000       0.826987        22.5035 
  53   0.0000       0.879195        23.9241 
  54   0.0000       0.879617        23.9356 
  55   0.0000       0.889389        24.2015 
  56   0.0000       0.892396        24.2833 
  57   0.0000       0.931134        25.3375 
  58   0.0000       0.931477        25.3468 
  59   0.0000       0.990491        26.9526 
  60   0.0000       1.060334        28.8531 
  61   0.0000       1.174219        31.9521 
  62   0.0000       1.174574        31.9618 
  63   0.0000       1.324499        36.0415 
  64   0.0000       1.416053        38.5328 
  65   0.0000       1.416153        38.5355 
  66   0.0000       1.422503        38.7083 
  67   0.0000       1.422755        38.7151 
  68   0.0000       1.424791        38.7705 
  69   0.0000       1.480261        40.2799 
  70   0.0000       1.480350        40.2824 
  71   0.0000       1.676728        45.6261 
  72   0.0000       1.818916        49.4952 
  73   0.0000       1.826804        49.7099 
  74   0.0000       1.840316        50.0775 
  75   0.0000       1.923624        52.3445 
  76   0.0000       1.930217        52.5239 
  77   0.0000       1.930953        52.5439 
  78   0.0000       1.934506        52.6406 
  79   0.0000       1.934987        52.6537 
  80   0.0000       1.938192        52.7409 
  81   0.0000       1.938441        52.7477 
  82   0.0000       1.999936        54.4210 
  83   0.0000       2.000699        54.4418 
  84   0.0000       2.117980        57.6332 
  85   0.0000       2.167304        58.9753 
  86   0.0000       2.169850        59.0446 
  87   0.0000       2.170292        59.0566 
  88   0.0000       2.170958        59.0748 
  89   0.0000       2.171274        59.0834 
  90   0.0000       2.289385        62.2973 
  91   0.0000       2.329534        63.3899 
  92   0.0000       2.332030        63.4578 
  93   0.0000       2.332196        63.4623 
  94   0.0000       2.498942        67.9997 
  95   0.0000       2.499307        68.0096 
  96   0.0000       2.509622        68.2903 
  97   0.0000       2.509817        68.2956 
  98   0.0000       2.544294        69.2338 
  99   0.0000       2.544569        69.2412 
 100   0.0000       2.752977        74.9123 
 101   0.0000       2.800075        76.1939 
 102   0.0000       2.800428        76.2035 
 103   0.0000       2.844711        77.4085 
 104   0.0000       2.926294        79.6285 
 105   0.0000       2.928864        79.6984 
 106   0.0000       2.929494        79.7156 
 107   0.0000       3.069212        83.5175 
 108   0.0000       3.069478        83.5247 
 109   0.0000       3.089944        84.0817 
 110   0.0000       3.328131        90.5630 
 111   0.0000       3.328357        90.5692 
 112   0.0000       3.454494        94.0016 
 113   0.0000       3.865201       105.1775 

                 SPIN DOWN ORBITALS
  NO   OCC          E(Eh)            E(eV) 
   0   1.0000     -10.703410      -291.2546 
   1   1.0000     -10.703155      -291.2476 
   2   1.0000     -10.703100      -291.2462 
   3   1.0000     -10.702463      -291.2288 
   4   1.0000     -10.702410      -291.2274 
   5   1.0000     -10.702169      -291.2208 
   6   1.0000      -1.047350       -28.4998 
   7   1.0000      -0.925823       -25.1929 
   8   1.0000      -0.925723       -25.1902 
   9   1.0000      -0.761436       -20.7197 
  10   1.0000      -0.761275       -20.7154 
  11   1.0000      -0.669679       -18.2229 
  12   1.0000      -0.599362       -16.3095 
  13   1.0000      -0.588408       -16.0114 
  14   1.0000      -0.556999       -15.1567 
  15   1.0000      -0.556925       -15.1547 
  16   1.0000      -0.493695       -13.4341 
  17   1.0000      -0.470964       -12.8156 
  18   1.0000      -0.470875       -12.8132 
  19   1.0000      -0.346272        -9.4225 
  20   1.0000      -0.346211        -9.4209 
  21   0.0000       0.093716         2.5501 
  22   0.0000       0.093795         2.5523 
  23   0.0000       0.150560         4.0970 
  24   0.0000       0.191410         5.2085 
  25   0.0000       0.191935         5.2228 
  26   0.0000       0.229167         6.2359 
  27   0.0000       0.229290         6.2393 
  28   0.0000       0.250535         6.8174 
  29   0.0000       0.287063         7.8114 
  30   0.0000       0.403242        10.9728 
  31   0.0000       0.403857        10.9895 
  32   0.0000       0.419479        11.4146 
  33   0.0000       0.419592        11.4177 
  34   0.0000       0.483146        13.1471 
  35   0.0000       0.532804        14.4983 
  36   0.0000       0.543088        14.7782 
  37   0.0000       0.543272        14.7832 
  38   0.0000       0.563191        15.3252 
  39   0.0000       0.596519        16.2321 
  40   0.0000       0.614218        16.7137 
  41   0.0000       0.645616        17.5681 
  42   0.0000       0.645829        17.5739 
  43   0.0000       0.678342        18.4586 
  44   0.0000       0.683634        18.6026 
  45   0.0000       0.683674        18.6037 
  46   0.0000       0.753532        20.5047 
  47   0.0000       0.753964        20.5164 
  48   0.0000       0.787234        21.4217 
  49   0.0000       0.787556        21.4305 
  50   0.0000       0.817542        22.2465 
  51   0.0000       0.817797        22.2534 
  52   0.0000       0.826987        22.5035 
  53   0.0000       0.879195        23.9241 
  54   0.0000       0.879617        23.9356 
  55   0.0000       0.889389        24.2015 
  56   0.0000       0.892396        24.2833 
  57   0.0000       0.931134        25.3375 
  58   0.0000       0.931477        25.3468 
  59   0.0000       0.990491        26.9526 
  60   0.0000       1.060334        28.8531 
  61   0.0000       1.174219        31.9521 
  62   0.0000       1.174574        31.9618 
  63   0.0000       1.324499        36.0415 
  64   0.0000       1.416053        38.5328 
  65   0.0000       1.416153        38.5355 
  66   0.0000       1.422503        38.7083 
  67   0.0000       1.422755        38.7151 
  68   0.0000       1.424791        38.7705 
  69   0.0000       1.480261        40.2799 
  70   0.0000       1.480350        40.2824 
  71   0.0000       1.676728        45.6261 
  72   0.0000       1.818916        49.4952 
  73   0.0000       1.826804        49.7099 
  74   0.0000       1.840316        50.0775 
  75   0.0000       1.923624        52.3445 
  76   0.0000       1.930217        52.5239 
  77   0.0000       1.930953        52.5439 
  78   0.0000       1.934506        52.6406 
  79   0.0000       1.934987        52.6537 
  80   0.0000       1.938192        52.7409 
  81   0.0000       1.938441        52.7477 
  82   0.0000       1.999936        54.4210 
  83   0.0000       2.000699        54.4418 
  84   0.0000       2.117980        57.6332 
  85   0.0000       2.167304        58.9753 
  86   0.0000       2.169850        59.0446 
  87   0.0000       2.170292        59.0566 
  88   0.0000       2.170958        59.0748 
  89   0.0000       2.171274        59.0834 
  90   0.0000       2.289385        62.2973 
  91   0.0000       2.329534        63.3899 
  92   0.0000       2.332030        63.4578 
  93   0.0000       2.332196        63.4623 
  94   0.0000       2.498942        67.9997 
  95   0.0000       2.499307        68.0096 
  96   0.0000       2.509622        68.2903 
  97   0.0000       2.509817        68.2956 
  98   0.0000       2.544294        69.2338 
  99   0.0000       2.544569        69.2412 
 100   0.0000       2.752977        74.9123 
 101   0.0000       2.800075        76.1939 
 102   0.0000       2.800428        76.2035 
 103   0.0000       2.844711        77.4085 
 104   0.0000       2.926294        79.6285 
 105   0.0000       2.928864        79.6984 
 106   0.0000       2.929494        79.7156 
 107   0.0000       3.069212        83.5175 
 108   0.0000       3.069478        83.5247 
 109   0.0000       3.089944        84.0817 
 110   0.0000       3.328131        90.5630 
 111   0.0000       3.328357        90.5692 
 112   0.0000       3.454494        94.0016 
 113   0.0000       3.865201       105.1775 

                    ********************************
                    * MULLIKEN POPULATION ANALYSIS *
                    ********************************

--------------------------------------------
MULLIKEN ATOMIC CHARGES AND SPIN POPULATIONS
--------------------------------------------
   0 C :   -0.025662    0.000000
   1 C :   -0.025681    0.000000
   2 C :   -0.025621    0.000000
   3 C :   -0.025655    0.000000
   4 C :   -0.025681    0.000000
   5 C :   -0.025609    0.000000
   6 H :    0.025662    0.000000
   7 H :    0.025409    0.000000
   8 H :    0.025882    0.000000
   9 H :    0.025663    0.000000
  10 H :    0.025409    0.000000
  11 H :    0.025883    0.000000
Sum of atomic charges         :   -0.0000000
Sum of atomic spin populations:    0.0000000

-----------------------------------------------------
MULLIKEN REDUCED ORBITAL CHARGES AND SPIN POPULATIONS
-----------------------------------------------------
CHARGE
  0 C s       :     3.136468  s :     3.136468
      pz      :     0.986407  p :     2.851437
      px      :     0.906220
      py      :     0.958810
      dz2     :     0.002991  d :     0.037757
      dxz     :     0.002743
      dyz     :     0.006689
      dx2y2   :     0.013378
      dxy     :     0.011957
  1 C s       :     3.137715  s :     3.137715
      pz      :     0.986585  p :     2.850204
      px      :     0.952283
      py      :     0.911336
      dz2     :     0.002992  d :     0.037761
      dxz     :     0.006256
      dyz     :     0.003179
      dx2y2   :     0.012752
      dxy     :     0.012582
  2 C s       :     3.136781  s :     3.136781
      pz      :     0.986626  p :     2.851086
      px      :     0.938184
      py      :     0.926275
      dz2     :     0.002993  d :     0.037754
      dxz     :     0.005150
      dyz     :     0.004276
      dx2y2   :     0.011865
      dxy     :     0.013469
  3 C s       :     3.136470  s :     3.136470
      pz      :     0.986412  p :     2.851428
      px      :     0.906204
      py      :     0.958812
      dz2     :     0.002991  d :     0.037757
      dxz     :     0.002743
      dyz     :     0.006689
      dx2y2   :     0.013378
      dxy     :     0.011956
  4 C s       :     3.137713  s :     3.137713
      pz      :     0.986581  p :     2.850207
      px      :     0.952283
      py      :     0.911343
      dz2     :     0.002992  d :     0.037762
      dxz     :     0.006256
      dyz     :     0.003179
      dx2y2   :     0.012753
      dxy     :     0.012582
  5 C s       :     3.136779  s :     3.136779
      pz      :     0.986632  p :     2.851075
      px      :     0.938177
      py      :     0.926265
      dz2     :     0.002993  d :     0.037754
      dxz     :     0.005150
      dyz     :     0.004277
      dx2y2   :     0.011866
      dxy     :     0.013469
  6 H s       :     0.951254  s :     0.951254
      pz      :     0.004019  p :     0.023084
      px      :     0.016146
      py      :     0.002919
  7 H s       :     0.951492  s :     0.951492
      pz      :     0.004025  p :     0.023099
      px      :     0.004387
      py      :     0.014687
  8 H s       :     0.951025  s :     0.951025
      pz      :     0.004029  p :     0.023092
      px      :     0.008073
      py      :     0.010990
  9 H s       :     0.951253  s :     0.951253
      pz      :     0.004019  p :     0.023084
      px      :     0.016146
      py      :     0.002919
 10 H s       :     0.951492  s :     0.951492
      pz      :     0.004025  p :     0.023099
      px      :     0.004387
      py      :     0.014687
 11 H s       :     0.951025  s :     0.951025
      pz      :     0.004029  p :     0.023092
      px      :     0.008073
      py      :     0.010991

SPIN
  0 C s       :     0.000000  s :     0.000000
      pz      :     0.000000  p :     0.000000
      px      :     0.000000
      py      :     0.000000
      dz2     :     0.000000  d :     0.000000
      dxz     :     0.000000
      dyz     :     0.000000
      dx2y2   :     0.000000
      dxy     :     0.000000
  1 C s       :     0.000000  s :     0.000000
      pz      :     0.000000  p :     0.000000
      px      :     0.000000
      py      :     0.000000
      dz2     :     0.000000  d :     0.000000
      dxz     :     0.000000
      dyz     :     0.000000
      dx2y2   :     0.000000
      dxy     :     0.000000
  2 C s       :     0.000000  s :     0.000000
      pz      :     0.000000  p :     0.000000
      px      :     0.000000
      py      :     0.000000
      dz2     :     0.000000  d :     0.000000
      dxz     :     0.000000
      dyz     :     0.000000
      dx2y2   :     0.000000
      dxy     :     0.000000
  3 C s       :     0.000000  s :     0.000000
      pz      :     0.000000  p :     0.000000
      px      :     0.000000
      py      :     0.000000
      dz2     :     0.000000  d :     0.000000
      dxz     :     0.000000
      dyz     :     0.000000
      dx2y2   :     0.000000
      dxy     :     0.000000
  4 C s       :     0.000000  s :     0.000000
      pz      :     0.000000  p :     0.000000
      px      :     0.000000
      py      :     0.000000
      dz2     :     0.000000  d :     0.000000
      dxz     :     0.000000
      dyz     :     0.000000
      dx2y2   :     0.000000
      dxy     :     0.000000
  5 C s       :     0.000000  s :     0.000000
      pz      :     0.000000  p :     0.000000
      px      :     0.000000
      py      :     0.000000
      dz2     :     0.000000  d :     0.000000
      dxz     :     0.000000
      dyz     :     0.000000
      dx2y2   :     0.000000
      dxy     :     0.000000
  6 H s       :     0.000000  s :     0.000000
      pz      :     0.000000  p :     0.000000
      px      :     0.000000
      py      :     0.000000
  7 H s       :     0.000000  s :     0.000000
      pz      :     0.000000  p :     0.000000
      px      :     0.000000
      py      :     0.000000
  8 H s       :     0.000000  s :     0.000000
      pz      :     0.000000  p :     0.000000
      px      :     0.000000
      py      :     0.000000
  9 H s       :     0.000000  s :     0.000000
      pz      :     0.000000  p :     0.000000
      px      :     0.000000
      py      :     0.000000
 10 H s       :     0.000000  s :     0.000000
      pz      :     0.000000  p :     0.000000
      px      :     0.000000
      py      :     0.000000
 11 H s       :     0.000000  s :     0.000000
      pz      :     0.000000  p :     0.000000
      px      :     0.000000
      py      :     0.000000

------------------------
MULLIKEN OVERLAP CHARGES
------------------------
B(  0-C ,  1-C ) :   0.8081 B(  0-C ,  3-C ) :  -0.1839 B(  0-C ,  5-C ) :   0.8065 
B(  0-C ,  6-H ) :   0.8782 B(  0-C ,  7-H ) :  -0.1105 B(  0-C , 11-H ) :  -0.1102 
B(  1-C ,  2-C ) :   0.8075 B(  1-C ,  4-C ) :  -0.1841 B(  1-C ,  6-H ) :  -0.1099 
B(  1-C ,  7-H ) :   0.8789 B(  1-C ,  8-H ) :  -0.1102 B(  2-C ,  3-C ) :   0.8065 
B(  2-C ,  5-C ) :  -0.1841 B(  2-C ,  7-H ) :  -0.1109 B(  2-C ,  8-H ) :   0.8782 
B(  2-C ,  9-H ) :  -0.1106 B(  3-C ,  4-C ) :   0.8081 B(  3-C ,  8-H ) :  -0.1102 
B(  3-C ,  9-H ) :   0.8782 B(  3-C , 10-H ) :  -0.1105 B(  4-C ,  5-C ) :   0.8075 
B(  4-C ,  9-H ) :  -0.1099 B(  4-C , 10-H ) :   0.8789 B(  4-C , 11-H ) :  -0.1102 
B(  5-C ,  6-H ) :  -0.1106 B(  5-C , 10-H ) :  -0.1109 B(  5-C , 11-H ) :   0.8782 



                     *******************************
                     * LOEWDIN POPULATION ANALYSIS *
                     *******************************

-------------------------------------------
LOEWDIN ATOMIC CHARGES AND SPIN POPULATIONS
-------------------------------------------
   0 C :   -0.032058    0.000000
   1 C :   -0.032007    0.000000
   2 C :   -0.032178    0.000000
   3 C :   -0.032060    0.000000
   4 C :   -0.032004    0.000000
   5 C :   -0.032181    0.000000
   6 H :    0.032098    0.000000
   7 H :    0.032026    0.000000
   8 H :    0.032118    0.000000
   9 H :    0.032099    0.000000
  10 H :    0.032026    0.000000
  11 H :    0.032120    0.000000

----------------------------------------------------
LOEWDIN REDUCED ORBITAL CHARGES AND SPIN POPULATIONS
----------------------------------------------------
CHARGE
  0 C s       :     2.860757  s :     2.860757
      pz      :     0.968550  p :     3.080489
      px      :     1.044001
      py      :     1.067938
      dz2     :     0.006271  d :     0.090812
      dxz     :     0.004382
      dyz     :     0.013538
      dx2y2   :     0.035127
      dxy     :     0.031495
  1 C s       :     2.860706  s :     2.860706
      pz      :     0.968639  p :     3.080452
      px      :     1.065183
      py      :     1.046630
      dz2     :     0.006272  d :     0.090849
      dxz     :     0.012531
      dyz     :     0.005393
      dx2y2   :     0.033547
      dxy     :     0.033106
  2 C s       :     2.860710  s :     2.860710
      pz      :     0.968713  p :     3.080677
      px      :     1.058677
      py      :     1.053287
      dz2     :     0.006270  d :     0.090791
      dxz     :     0.009968
      dyz     :     0.007939
      dx2y2   :     0.031260
      dxy     :     0.035354
  3 C s       :     2.860758  s :     2.860758
      pz      :     0.968554  p :     3.080491
      px      :     1.044003
      py      :     1.067934
      dz2     :     0.006271  d :     0.090811
      dxz     :     0.004382
      dyz     :     0.013537
      dx2y2   :     0.035128
      dxy     :     0.031493
  4 C s       :     2.860705  s :     2.860705
      pz      :     0.968636  p :     3.080449
      px      :     1.065179
      py      :     1.046634
      dz2     :     0.006272  d :     0.090850
      dxz     :     0.012531
      dyz     :     0.005394
      dx2y2   :     0.033549
      dxy     :     0.033104
  5 C s       :     2.860706  s :     2.860706
      pz      :     0.968718  p :     3.080682
      px      :     1.058671
      py      :     1.053294
      dz2     :     0.006270  d :     0.090793
      dxz     :     0.009968
      dyz     :     0.007940
      dx2y2   :     0.031262
      dxy     :     0.035353
  6 H s       :     0.901763  s :     0.901763
      pz      :     0.013443  p :     0.066138
      px      :     0.041697
      py      :     0.010998
  7 H s       :     0.901782  s :     0.901782
      pz      :     0.013467  p :     0.066192
      px      :     0.014402
      py      :     0.038323
  8 H s       :     0.901650  s :     0.901650
      pz      :     0.013479  p :     0.066232
      px      :     0.022969
      py      :     0.029784
  9 H s       :     0.901762  s :     0.901762
      pz      :     0.013444  p :     0.066139
      px      :     0.041698
      py      :     0.010997
 10 H s       :     0.901783  s :     0.901783
      pz      :     0.013467  p :     0.066192
      px      :     0.014401
      py      :     0.038323
 11 H s       :     0.901648  s :     0.901648
      pz      :     0.013479  p :     0.066232
      px      :     0.022969
      py      :     0.029784

SPIN
  0 C s       :     0.000000  s :     0.000000
      pz      :     0.000000  p :     0.000000
      px      :     0.000000
      py      :     0.000000
      dz2     :     0.000000  d :     0.000000
      dxz     :     0.000000
      dyz     :     0.000000
      dx2y2   :     0.000000
      dxy     :     0.000000
  1 C s       :     0.000000  s :     0.000000
      pz      :     0.000000  p :     0.000000
      px      :     0.000000
      py      :     0.000000
      dz2     :     0.000000  d :     0.000000
      dxz     :     0.000000
      dyz     :     0.000000
      dx2y2   :     0.000000
      dxy     :     0.000000
  2 C s       :     0.000000  s :     0.000000
      pz      :     0.000000  p :     0.000000
      px      :     0.000000
      py      :     0.000000
      dz2     :     0.000000  d :     0.000000
      dxz     :     0.000000
      dyz     :     0.000000
      dx2y2   :     0.000000
      dxy     :     0.000000
  3 C s       :     0.000000  s :     0.000000
      pz      :     0.000000  p :     0.000000
      px      :     0.000000
      py      :     0.000000
      dz2     :     0.000000  d :     0.000000
      dxz     :     0.000000
      dyz     :     0.000000
      dx2y2   :     0.000000
      dxy     :     0.000000
  4 C s       :     0.000000  s :     0.000000
      pz      :     0.000000  p :     0.000000
      px      :     0.000000
      py      :     0.000000
      dz2     :     0.000000  d :     0.000000
      dxz     :     0.000000
      dyz     :     0.000000
      dx2y2   :     0.000000
      dxy     :     0.000000
  5 C s       :     0.000000  s :     0.000000
      pz      :     0.000000  p :     0.000000
      px      :     0.000000
      py      :     0.000000
      dz2     :     0.000000  d :     0.000000
      dxz     :     0.000000
      dyz     :     0.000000
      dx2y2   :     0.000000
      dxy     :     0.000000
  6 H s       :     0.000000  s :     0.000000
      pz      :     0.000000  p :     0.000000
      px      :     0.000000
      py      :     0.000000
  7 H s       :     0.000000  s :     0.000000
      pz      :     0.000000  p :     0.000000
      px      :     0.000000
      py      :     0.000000
  8 H s       :     0.000000  s :     0.000000
      pz      :     0.000000  p :     0.000000
      px      :     0.000000
      py      :     0.000000
  9 H s       :     0.000000  s :     0.000000
      pz      :     0.000000  p :     0.000000
      px      :     0.000000
      py      :     0.000000
 10 H s       :     0.000000  s :     0.000000
      pz      :     0.000000  p :     0.000000
      px      :     0.000000
      py      :     0.000000
 11 H s       :     0.000000  s :     0.000000
      pz      :     0.000000  p :     0.000000
      px      :     0.000000
      py      :     0.000000

---------------------------------
LOEWDIN BOND ORDERS (THRESH 0.050000)
---------------------------------
B(  0-C ,  1-C ) :   1.4677 B(  0-C ,  2-C ) :   0.0792 B(  0-C ,  3-C ) :   0.1143 
B(  0-C ,  4-C ) :   0.0792 B(  0-C ,  5-C ) :   1.4675 B(  0-C ,  6-H ) :   0.9376 
B(  0-C ,  7-H ) :   0.0552 B(  0-C , 11-H ) :   0.0552 B(  1-C ,  2-C ) :   1.4675 
B(  1-C ,  3-C ) :   0.0792 B(  1-C ,  4-C ) :   0.1143 B(  1-C ,  5-C ) :   0.0793 
B(  1-C ,  6-H ) :   0.0552 B(  1-C ,  7-H ) :   0.9376 B(  1-C ,  8-H ) :   0.0552 
B(  2-C ,  3-C ) :   1.4674 B(  2-C ,  4-C ) :   0.0793 B(  2-C ,  5-C ) :   0.1144 
B(  2-C ,  7-H ) :   0.0552 B(  2-C ,  8-H ) :   0.9376 B(  2-C ,  9-H ) :   0.0552 
B(  3-C ,  4-C ) :   1.4677 B(  3-C ,  5-C ) :   0.0792 B(  3-C ,  8-H ) :   0.0552 
B(  3-C ,  9-H ) :   0.9376 B(  3-C , 10-H ) :   0.0552 B(  4-C ,  5-C ) :   1.4674 
B(  4-C ,  9-H ) :   0.0552 B(  4-C , 10-H ) :   0.9376 B(  4-C , 11-H ) :   0.0552 
B(  5-C ,  6-H ) :   0.0552 B(  5-C , 10-H ) :   0.0552 B(  5-C , 11-H ) :   0.9376 


------------------------------------------
LOEWDIN REDUCED ORBITAL POPULATIONS PER MO
-------------------------------------------
THRESHOLD FOR PRINTING IS 0.1%
SPIN UP
                      0         1         2         3         4         5   
                 -10.70341 -10.70315 -10.70310 -10.70246 -10.70241 -10.70217
                   1.00000   1.00000   1.00000   1.00000   1.00000   1.00000
                  --------  --------  --------  --------  --------  --------
 0 C  s              18.3      34.1       0.8      30.4       1.0      15.0
 0 C  py              0.0       0.0       0.1       0.0       0.1       0.0
 1 C  s              15.2       4.0      27.7       4.1      30.4      18.1
 2 C  s              16.2      11.7      21.2      15.3      18.4      16.9
 3 C  s              18.5      34.0       0.8      30.4       1.0      14.9
 3 C  py              0.0       0.0       0.1       0.0       0.1       0.0
 4 C  s              15.3       3.9      27.8       4.2      30.4      18.0
 5 C  s              16.1      11.8      21.1      15.2      18.4      16.9

                      6         7         8         9        10        11   
                  -1.04735  -0.92582  -0.92572  -0.76144  -0.76128  -0.66968
                   1.00000   1.00000   1.00000   1.00000   1.00000   1.00000
                  --------  --------  --------  --------  --------  --------
 0 C  s              12.1      12.6       6.0       3.3       5.7       0.5
 0 C  px              2.6       0.3       0.1       0.3       2.7      10.5
 0 C  py              0.1       2.7       6.2      10.1       4.4       0.3
 0 C  dz2             0.1       0.1       0.0       0.0       0.0       0.0
 0 C  dxy             0.0       0.1       0.2       0.1       0.1       0.0
 1 C  s              12.1      15.2       3.4       1.3       7.6       0.5
 1 C  px              0.3       1.3       6.7      12.4       0.8       1.4
 1 C  py              2.3       0.6       0.8       0.5       3.7       9.4
 1 C  dz2             0.1       0.1       0.0       0.0       0.0       0.0
 1 C  dx2y2           0.0       0.0       0.2       0.1       0.0       0.0
 1 C  dxy             0.0       0.1       0.1       0.1       0.0       0.0
 2 C  s              12.0       0.1      18.5       8.8       0.1       0.5
 2 C  px              1.1       5.5       0.1       0.4       9.6       4.3
 2 C  py              1.6       3.5       0.2       2.4       5.1       6.5
 2 C  dz2             0.1       0.0       0.1       0.0       0.0       0.0
 2 C  dx2y2           0.0       0.3       0.0       0.0       0.2       0.0
 3 C  s              12.1      12.6       6.0       3.3       5.7       0.5
 3 C  px              2.6       0.3       0.1       0.3       2.7      10.5
 3 C  py              0.1       2.7       6.1      10.1       4.4       0.3
 3 C  dz2             0.1       0.1       0.0       0.0       0.0       0.0
 3 C  dxy             0.0       0.1       0.2       0.1       0.1       0.0
 4 C  s              12.1      15.2       3.4       1.3       7.6       0.5
 4 C  px              0.3       1.3       6.7      12.4       0.8       1.4
 4 C  py              2.3       0.6       0.8       0.5       3.7       9.4
 4 C  dz2             0.1       0.1       0.0       0.0       0.0       0.0
 4 C  dx2y2           0.0       0.0       0.2       0.1       0.0       0.0
 4 C  dxy             0.0       0.1       0.1       0.1       0.0       0.0
 5 C  s              12.0       0.1      18.5       8.8       0.1       0.5
 5 C  px              1.1       5.5       0.1       0.4       9.6       4.3
 5 C  py              1.6       3.5       0.2       2.4       5.1       6.5
 5 C  dz2             0.1       0.0       0.1       0.0       0.0       0.0
 5 C  dx2y2           0.0       0.3       0.0       0.0       0.2       0.0
 6 H  s               1.6       3.0       1.4       2.2       3.8       5.2
 6 H  px              0.1       0.3       0.1       0.2       0.3       0.3
 7 H  s               1.6       3.6       0.8       0.9       5.1       5.2
 7 H  px              0.0       0.0       0.0       0.0       0.1       0.0
 7 H  py              0.1       0.3       0.1       0.1       0.4       0.2
 8 H  s               1.6       0.0       4.4       5.9       0.1       5.2
 8 H  px              0.1       0.0       0.2       0.2       0.0       0.1
 8 H  py              0.1       0.0       0.3       0.3       0.1       0.2
 9 H  s               1.6       3.0       1.4       2.2       3.8       5.2
 9 H  px              0.1       0.3       0.1       0.2       0.3       0.3
10 H  s               1.6       3.6       0.8       0.9       5.1       5.2
10 H  px              0.0       0.0       0.0       0.0       0.1       0.0
10 H  py              0.1       0.3       0.1       0.1       0.4       0.2
11 H  s               1.6       0.0       4.4       5.9       0.1       5.2
11 H  px              0.1       0.0       0.2       0.2       0.0       0.1
11 H  py              0.1       0.0       0.3       0.3       0.1       0.2

                     12        13        14        15        16        17   
                  -0.59936  -0.58841  -0.55700  -0.55693  -0.49370  -0.47096
                   1.00000   1.00000   1.00000   1.00000   1.00000   1.00000
                  --------  --------  --------  --------  --------  --------
 0 C  s               2.8       0.0       0.5       0.0       0.0       0.0
 0 C  pz              0.0       0.0       0.0       0.0      16.4       0.0
 0 C  px              5.2       0.4      18.6       1.6       0.0       6.4
 0 C  py              0.1      15.9       0.9       0.9       0.0       4.3
 0 C  dxz             0.0       0.0       0.0       0.0       0.1       0.0
 0 C  dx2y2           0.4       0.0       0.2       0.0       0.0       0.3
 0 C  dxy             0.0       0.1       0.0       0.5       0.0       0.4
 1 C  s               2.8       0.0       0.0       0.4       0.0       0.0
 1 C  pz              0.0       0.0       0.0       0.0      16.4       0.0
 1 C  px              0.7      14.2       0.4       3.4       0.0       7.7
 1 C  py              4.6       2.1       2.3      15.8       0.0       3.9
 1 C  dyz             0.0       0.0       0.0       0.0       0.1       0.0
 1 C  dx2y2           0.2       0.1       0.1       0.2       0.0       0.0
 1 C  dxy             0.2       0.1       0.3       0.0       0.0       0.4
 2 C  s               2.8       0.0       0.2       0.2       0.0       0.1
 2 C  pz              0.0       0.0       0.0       0.0      16.4       0.0
 2 C  px              2.1       9.9       2.0       6.9       0.0       6.5
 2 C  py              3.2       6.4       8.6       4.3       0.0       3.4
 2 C  dx2y2           0.0       0.1       0.2       0.3       0.0       0.1
 2 C  dxy             0.4       0.0       0.1       0.0       0.0       0.9
 3 C  s               2.8       0.0       0.5       0.0       0.0       0.0
 3 C  pz              0.0       0.0       0.0       0.0      16.4       0.0
 3 C  px              5.2       0.4      18.6       1.6       0.0       6.4
 3 C  py              0.1      15.9       0.9       0.9       0.0       4.3
 3 C  dxz             0.0       0.0       0.0       0.0       0.1       0.0
 3 C  dx2y2           0.4       0.0       0.2       0.0       0.0       0.3
 3 C  dxy             0.0       0.1       0.0       0.5       0.0       0.4
 4 C  s               2.8       0.0       0.0       0.4       0.0       0.0
 4 C  pz              0.0       0.0       0.0       0.0      16.4       0.0
 4 C  px              0.7      14.2       0.4       3.4       0.0       7.7
 4 C  py              4.6       2.1       2.3      15.8       0.0       3.9
 4 C  dyz             0.0       0.0       0.0       0.0       0.1       0.0
 4 C  dx2y2           0.2       0.1       0.1       0.2       0.0       0.0
 4 C  dxy             0.2       0.1       0.3       0.0       0.0       0.4
 5 C  s               2.8       0.0       0.2       0.2       0.0       0.1
 5 C  pz              0.0       0.0       0.0       0.0      16.4       0.0
 5 C  px              2.1       9.9       2.0       6.9       0.0       6.5
 5 C  py              3.2       6.4       8.6       4.3       0.0       3.4
 5 C  dx2y2           0.0       0.1       0.2       0.3       0.0       0.1
 5 C  dxy             0.4       0.0       0.1       0.0       0.0       0.9
 6 H  s               7.7       0.0       9.5       0.6       0.0       4.9
 6 H  pz              0.0       0.0       0.0       0.0       0.2       0.0
 6 H  px              0.3       0.0       0.2       0.0       0.0       0.0
 6 H  py              0.0       0.2       0.0       0.0       0.0       0.1
 7 H  s               7.7       0.0       0.7       9.4       0.0       0.7
 7 H  pz              0.0       0.0       0.0       0.0       0.2       0.0
 7 H  px              0.0       0.2       0.0       0.0       0.0       0.2
 7 H  py              0.3       0.0       0.0       0.2       0.0       0.0
 8 H  s               7.8       0.0       4.9       5.2       0.0       9.3
 8 H  pz              0.0       0.0       0.0       0.0       0.2       0.0
 8 H  px              0.1       0.1       0.1       0.0       0.0       0.0
 8 H  py              0.2       0.1       0.0       0.1       0.0       0.1
 9 H  s               7.7       0.0       9.5       0.6       0.0       4.9
 9 H  pz              0.0       0.0       0.0       0.0       0.2       0.0
 9 H  px              0.3       0.0       0.2       0.0       0.0       0.0
 9 H  py              0.0       0.2       0.0       0.0       0.0       0.1
10 H  s               7.7       0.0       0.7       9.4       0.0       0.7
10 H  pz              0.0       0.0       0.0       0.0       0.2       0.0
10 H  px              0.0       0.2       0.0       0.0       0.0       0.2
10 H  py              0.3       0.0       0.0       0.2       0.0       0.0
11 H  s               7.8       0.0       4.9       5.2       0.0       9.3
11 H  pz              0.0       0.0       0.0       0.0       0.2       0.0
11 H  px              0.1       0.1       0.1       0.0       0.0       0.0
11 H  py              0.2       0.1       0.0       0.1       0.0       0.1

                     18        19        20        21        22        23   
                  -0.47088  -0.34627  -0.34621   0.09372   0.09380   0.15056
                   1.00000   1.00000   1.00000   0.00000   0.00000   0.00000
                  --------  --------  --------  --------  --------  --------
 0 C  s               0.0       0.0       0.0       0.0       0.0       1.7
 0 C  pz              0.0      19.0      13.0      19.6      10.5       0.0
 0 C  px              3.4       0.0       0.0       0.0       0.0       1.6
 0 C  py              7.3       0.0       0.0       0.0       0.0       0.0
 0 C  dz2             0.0       0.0       0.0       0.0       0.0       0.1
 0 C  dxz             0.0       0.1       0.0       0.1       0.2       0.0
 0 C  dyz             0.0       0.2       0.4       0.6       0.9       0.0
 0 C  dx2y2           0.7       0.0       0.0       0.0       0.0       0.9
 1 C  s               0.1       0.0       0.0       0.0       0.0       1.7
 1 C  pz              0.0      28.2       3.9       0.4      29.8       0.0
 1 C  px              3.8       0.0       0.0       0.0       0.0       0.2
 1 C  py              6.2       0.0       0.0       0.0       0.0       1.4
 1 C  dz2             0.0       0.0       0.0       0.0       0.0       0.1
 1 C  dxz             0.0       0.0       0.6       1.4       0.0       0.0
 1 C  dyz             0.0       0.1       0.0       0.2       0.2       0.0
 1 C  dx2y2           0.7       0.0       0.0       0.0       0.0       0.5
 1 C  dxy             0.3       0.0       0.0       0.0       0.0       0.4
 2 C  s               0.0       0.0       0.0       0.0       0.0       1.7
 2 C  pz              0.0       0.9      31.2      25.2       4.9       0.0
 2 C  px              4.4       0.0       0.0       0.0       0.0       0.6
 2 C  py              7.2       0.0       0.0       0.0       0.0       1.0
 2 C  dz2             0.0       0.0       0.0       0.0       0.0       0.1
 2 C  dxz             0.0       0.4       0.0       0.0       1.0       0.0
 2 C  dyz             0.0       0.2       0.1       0.4       0.3       0.0
 2 C  dx2y2           0.3       0.0       0.0       0.0       0.0       0.0
 2 C  dxy             0.1       0.0       0.0       0.0       0.0       0.9
 3 C  s               0.0       0.0       0.0       0.0       0.0       1.7
 3 C  pz              0.0      19.0      13.0      19.6      10.5       0.0
 3 C  px              3.4       0.0       0.0       0.0       0.0       1.6
 3 C  py              7.3       0.0       0.0       0.0       0.0       0.0
 3 C  dz2             0.0       0.0       0.0       0.0       0.0       0.1
 3 C  dxz             0.0       0.1       0.0       0.1       0.2       0.0
 3 C  dyz             0.0       0.2       0.4       0.6       0.9       0.0
 3 C  dx2y2           0.7       0.0       0.0       0.0       0.0       0.9
 4 C  s               0.1       0.0       0.0       0.0       0.0       1.7
 4 C  pz              0.0      28.2       3.9       0.3      29.8       0.0
 4 C  px              3.8       0.0       0.0       0.0       0.0       0.2
 4 C  py              6.2       0.0       0.0       0.0       0.0       1.4
 4 C  dz2             0.0       0.0       0.0       0.0       0.0       0.1
 4 C  dxz             0.0       0.0       0.6       1.4       0.0       0.0
 4 C  dyz             0.0       0.1       0.0       0.2       0.2       0.0
 4 C  dx2y2           0.7       0.0       0.0       0.0       0.0       0.5
 4 C  dxy             0.3       0.0       0.0       0.0       0.0       0.4
 5 C  s               0.0       0.0       0.0       0.0       0.0       1.7
 5 C  pz              0.0       0.9      31.2      25.2       4.9       0.0
 5 C  px              4.4       0.0       0.0       0.0       0.0       0.6
 5 C  py              7.1       0.0       0.0       0.0       0.0       1.0
 5 C  dz2             0.0       0.0       0.0       0.0       0.0       0.1
 5 C  dxz             0.0       0.4       0.0       0.0       1.0       0.0
 5 C  dyz             0.0       0.2       0.1       0.4       0.3       0.0
 5 C  dx2y2           0.3       0.0       0.0       0.0       0.0       0.0
 5 C  dxy             0.1       0.0       0.0       0.0       0.0       0.9
 6 H  s               5.1       0.0       0.0       0.0       0.0      10.4
 6 H  pz              0.0       0.3       0.2       0.9       0.5       0.0
 6 H  px              0.1       0.0       0.0       0.0       0.0       1.8
 7 H  s               9.2       0.0       0.0       0.0       0.0      10.5
 7 H  pz              0.0       0.5       0.1       0.0       1.4       0.0
 7 H  px              0.0       0.0       0.0       0.0       0.0       0.2
 7 H  py              0.1       0.0       0.0       0.0       0.0       1.6
 8 H  s               0.6       0.0       0.0       0.0       0.0      10.4
 8 H  pz              0.0       0.0       0.5       1.1       0.2       0.0
 8 H  px              0.1       0.0       0.0       0.0       0.0       0.7
 8 H  py              0.0       0.0       0.0       0.0       0.0       1.1
 9 H  s               5.1       0.0       0.0       0.0       0.0      10.4
 9 H  pz              0.0       0.3       0.2       0.9       0.5       0.0
 9 H  px              0.1       0.0       0.0       0.0       0.0       1.8
10 H  s               9.2       0.0       0.0       0.0       0.0      10.5
10 H  pz              0.0       0.5       0.1       0.0       1.4       0.0
10 H  px              0.0       0.0       0.0       0.0       0.0       0.2
10 H  py              0.1       0.0       0.0       0.0       0.0       1.6
11 H  s               0.6       0.0       0.0       0.0       0.0      10.4
11 H  pz              0.0       0.0       0.5       1.1       0.2       0.0
11 H  px              0.1       0.0       0.0       0.0       0.0       0.7
11 H  py              0.0       0.0       0.0       0.0       0.0       1.1

                     24        25        26        27        28        29   
                   0.19141   0.19193   0.22917   0.22929   0.25054   0.28706
                   0.00000   0.00000   0.00000   0.00000   0.00000   0.00000
                  --------  --------  --------  --------  --------  --------
 0 C  s               0.7       1.0       2.5       1.7       1.7       0.0
 0 C  pz              0.0       0.0       0.0       0.0       0.0      14.7
 0 C  px              1.9       2.9       1.1       0.6       0.8       0.0
 0 C  py              0.3       0.2       0.1       0.3       0.0       0.0
 0 C  dz2             0.0       0.0       0.2       0.1       0.2       0.0
 0 C  dxz             0.0       0.0       0.0       0.0       0.0       0.5
 0 C  dx2y2           0.2       0.2       0.1       0.0       0.0       0.0
 0 C  dxy             0.0       0.1       0.0       0.1       0.0       0.0
 1 C  s               1.6       0.0       0.1       4.1       1.7       0.0
 1 C  pz              0.0       0.0       0.0       0.0       0.0      14.7
 1 C  px              0.6       0.3       0.2       0.3       0.1       0.0
 1 C  py              4.2       0.2       0.1       1.4       0.7       0.0
 1 C  dz2             0.0       0.0       0.0       0.3       0.2       0.0
 1 C  dyz             0.0       0.0       0.0       0.0       0.0       0.4
 1 C  dx2y2           0.3       0.0       0.1       0.0       0.0       0.0
 1 C  dxy             0.2       0.1       0.0       0.0       0.0       0.0
 2 C  s               0.2       1.5       3.7       0.5       1.7       0.0
 2 C  pz              0.0       0.0       0.0       0.0       0.0      14.7
 2 C  px              0.4       1.8       0.8       0.1       0.3       0.0
 2 C  py              0.5       2.6       0.8       0.4       0.5       0.0
 2 C  dz2             0.0       0.0       0.3       0.0       0.2       0.0
 2 C  dxz             0.0       0.0       0.0       0.0       0.0       0.2
 2 C  dyz             0.0       0.0       0.0       0.0       0.0       0.3
 2 C  dx2y2           0.1       0.1       0.0       0.1       0.0       0.0
 2 C  dxy             0.1       0.3       0.1       0.0       0.0       0.0
 3 C  s               0.7       1.0       2.5       1.7       1.7       0.0
 3 C  pz              0.0       0.0       0.0       0.0       0.0      14.7
 3 C  px              1.9       2.9       1.1       0.6       0.8       0.0
 3 C  py              0.3       0.2       0.1       0.3       0.0       0.0
 3 C  dz2             0.0       0.0       0.2       0.1       0.2       0.0
 3 C  dxz             0.0       0.0       0.0       0.0       0.0       0.5
 3 C  dx2y2           0.2       0.2       0.1       0.0       0.0       0.0
 3 C  dxy             0.0       0.1       0.0       0.1       0.0       0.0
 4 C  s               1.6       0.0       0.1       4.1       1.7       0.0
 4 C  pz              0.0       0.0       0.0       0.0       0.0      14.7
 4 C  px              0.6       0.3       0.2       0.3       0.1       0.0
 4 C  py              4.2       0.2       0.1       1.4       0.7       0.0
 4 C  dz2             0.0       0.0       0.0       0.3       0.2       0.0
 4 C  dyz             0.0       0.0       0.0       0.0       0.0       0.4
 4 C  dx2y2           0.3       0.0       0.1       0.0       0.0       0.0
 4 C  dxy             0.2       0.1       0.0       0.0       0.0       0.0
 5 C  s               0.2       1.5       3.7       0.5       1.7       0.0
 5 C  pz              0.0       0.0       0.0       0.0       0.0      14.7
 5 C  px              0.4       1.8       0.8       0.1       0.3       0.0
 5 C  py              0.5       2.6       0.8       0.4       0.5       0.0
 5 C  dz2             0.0       0.0       0.3       0.0       0.2       0.0
 5 C  dxz             0.0       0.0       0.0       0.0       0.0       0.2
 5 C  dyz             0.0       0.0       0.0       0.0       0.0       0.3
 5 C  dx2y2           0.1       0.1       0.0       0.1       0.0       0.0
 5 C  dxy             0.1       0.3       0.1       0.0       0.0       0.0
 6 H  s               8.9      13.3      13.3       9.1      11.8       0.0
 6 H  pz              0.0       0.0       0.0       0.0       0.0       1.5
 6 H  px              1.3       2.1       2.0       1.7       2.1       0.0
 6 H  py              0.1       0.0       0.4       0.1       0.1       0.0
 7 H  s              21.6       0.6       0.6      21.7      11.8       0.0
 7 H  pz              0.0       0.0       0.0       0.0       0.0       1.5
 7 H  px              0.5       0.0       0.5       0.3       0.3       0.0
 7 H  py              2.9       0.1       0.0       3.2       1.8       0.0
 8 H  s               2.8      19.4      19.7       2.8      11.9       0.0
 8 H  pz              0.0       0.0       0.0       0.0       0.0       1.5
 8 H  px              0.1       1.3       0.9       0.8       0.8       0.0
 8 H  py              0.3       1.8       2.4       0.0       1.3       0.0
 9 H  s               8.9      13.3      13.3       9.1      11.8       0.0
 9 H  pz              0.0       0.0       0.0       0.0       0.0       1.5
 9 H  px              1.3       2.1       2.0       1.7       2.1       0.0
 9 H  py              0.1       0.0       0.4       0.1       0.1       0.0
10 H  s              21.6       0.6       0.6      21.7      11.8       0.0
10 H  pz              0.0       0.0       0.0       0.0       0.0       1.5
10 H  px              0.5       0.0       0.5       0.3       0.3       0.0
10 H  py              2.9       0.1       0.0       3.2       1.8       0.0
11 H  s               2.8      19.4      19.7       2.8      11.9       0.0
11 H  pz              0.0       0.0       0.0       0.0       0.0       1.5
11 H  px              0.1       1.3       0.9       0.8       0.8       0.0
11 H  py              0.3       1.8       2.4       0.0       1.3       0.0

                     30        31        32        33        34        35   
                   0.40324   0.40386   0.41948   0.41959   0.48315   0.53280
                   0.00000   0.00000   0.00000   0.00000   0.00000   0.00000
                  --------  --------  --------  --------  --------  --------
 0 C  s               2.3       6.6       3.4       2.1      13.7       0.0
 0 C  px              1.6       2.8       2.6       0.5       0.8       0.3
 0 C  py              5.0       2.3       3.3       7.3       0.0      13.0
 0 C  dz2             0.4       1.2       0.6       0.4       1.4       0.0
 0 C  dx2y2           0.0       0.9       1.1       2.2       0.1       0.1
 0 C  dxy             3.8       0.8       2.1       0.9       0.0       1.5
 1 C  s               8.9       0.0       0.1       5.4      13.7       0.0
 1 C  px              0.5       6.4       8.7       0.9       0.1      11.3
 1 C  py              3.7       0.9       1.8       2.1       0.7       1.7
 1 C  dz2             1.6       0.0       0.0       0.9       1.4       0.0
 1 C  dx2y2           0.3       2.3       0.9       2.3       0.1       0.7
 1 C  dxy             0.3       2.7       2.0       1.1       0.0       0.9
 2 C  s               2.2       6.7       4.7       0.8      13.7       0.0
 2 C  px              4.9       1.2       3.5       4.1       0.3       8.4
 2 C  py              1.7       3.8       0.5       5.5       0.5       5.5
 2 C  dz2             0.4       1.2       0.8       0.1       1.4       0.0
 2 C  dx2y2           3.9       0.9       1.0       1.9       0.0       1.7
 2 C  dxy             0.0       0.8       2.3       1.0       0.1       0.1
 3 C  s               2.3       6.6       3.4       2.0      13.7       0.0
 3 C  px              1.6       2.8       2.6       0.5       0.8       0.3
 3 C  py              5.0       2.3       3.3       7.3       0.0      13.0
 3 C  dz2             0.4       1.2       0.6       0.4       1.4       0.0
 3 C  dx2y2           0.0       0.9       1.1       2.2       0.1       0.1
 3 C  dxy             3.8       0.8       2.1       0.9       0.0       1.5
 4 C  s               8.9       0.0       0.1       5.4      13.7       0.0
 4 C  px              0.5       6.4       8.7       0.9       0.1      11.3
 4 C  py              3.7       0.9       1.8       2.1       0.7       1.7
 4 C  dz2             1.6       0.0       0.0       0.9       1.4       0.0
 4 C  dx2y2           0.3       2.3       0.9       2.3       0.1       0.7
 4 C  dxy             0.3       2.7       2.0       1.1       0.0       0.9
 5 C  s               2.2       6.7       4.7       0.8      13.7       0.0
 5 C  px              4.9       1.2       3.5       4.1       0.3       8.4
 5 C  py              1.7       3.8       0.5       5.5       0.5       5.5
 5 C  dz2             0.4       1.2       0.8       0.1       1.4       0.0
 5 C  dx2y2           3.9       0.9       1.0       1.9       0.0       1.7
 5 C  dxy             0.0       0.8       2.3       1.0       0.1       0.1
 6 H  s               0.5       1.5       1.7       1.0       0.7       0.0
 6 H  px              0.0       0.2       0.0       0.2       0.0       0.0
 6 H  py              2.6       0.8       1.7       2.5       0.0       1.5
 7 H  s               2.1       0.0       0.0       2.6       0.7       0.0
 7 H  px              0.0       3.0       3.7       0.0       0.0       1.4
 7 H  py              0.1       0.4       0.5       0.2       0.0       0.2
 8 H  s               0.5       1.6       2.3       0.4       0.7       0.0
 8 H  px              1.3       0.8       0.2       2.5       0.0       0.9
 8 H  py              1.3       0.1       0.6       1.2       0.0       0.6
 9 H  s               0.5       1.5       1.7       1.0       0.7       0.0
 9 H  px              0.0       0.2       0.0       0.2       0.0       0.0
 9 H  py              2.6       0.8       1.7       2.5       0.0       1.5
10 H  s               2.1       0.0       0.0       2.6       0.7       0.0
10 H  px              0.0       3.0       3.7       0.0       0.0       1.4
10 H  py              0.1       0.4       0.5       0.2       0.0       0.2
11 H  s               0.5       1.6       2.3       0.4       0.7       0.0
11 H  px              1.4       0.8       0.2       2.5       0.0       0.9
11 H  py              1.3       0.1       0.6       1.2       0.0       0.6

                     36        37        38        39        40        41   
                   0.54309   0.54327   0.56319   0.59652   0.61422   0.64562
                   0.00000   0.00000   0.00000   0.00000   0.00000   0.00000
                  --------  --------  --------  --------  --------  --------
 0 C  s              10.9       7.9       0.4       6.6       0.0       5.4
 0 C  pz              0.0       0.0       0.0       0.0      16.6       0.0
 0 C  px              0.2       0.2       2.9       0.4       0.0       0.1
 0 C  py              1.0       1.8       0.1       0.0       0.0       2.6
 0 C  dz2             2.0       1.5       0.2       2.7       0.0       3.2
[...]
   Time for Sigma-Completion:     0.062
   Size of expansion space: 40
   Lowest Energy          :     0.138653715383
   Maximum Energy change  :     0.025758001503 (vector 0)
   Maximum residual norm  :     0.000868213791

                       ****Iteration    2****
   Time for densities:     0.025
   Using LibInt in JK Direct
   Time for J+K (Direct):     7.289
   Time for XC-Integration:     0.555
   Time for Sigma-Completion:     0.373
   Size of expansion space: 50
   Lowest Energy          :     0.138449061902
   Maximum Energy change  :     0.001672259222 (vector 5)
   Maximum residual norm  :     0.000051449141

                       ****Iteration    3****
   Time for densities:     0.029
   Using LibInt in JK Direct
   Time for J+K (Direct):     7.146
   Time for XC-Integration:     0.773
   Time for Sigma-Completion:     0.644
   Size of expansion space: 60
   Lowest Energy          :     0.138435534419
   Maximum Energy change  :     0.000118621687 (vector 7)
   Maximum residual norm  :     0.000009786784

                       ****Iteration    4****
   Time for densities:     0.027
   Using LibInt in JK Direct
   Time for J+K (Direct):     6.417
   Time for XC-Integration:     0.405
   Time for Sigma-Completion:     0.525
   Size of expansion space: 70
   Lowest Energy          :     0.138435146109
   Maximum Energy change  :     0.000013365281 (vector 7)
   Maximum residual norm  :     0.000001118206

                       ****Iteration    5****
   Time for densities:     0.024
   Using LibInt in JK Direct
   Time for J+K (Direct):     6.532
   Time for XC-Integration:     0.542
   Time for Sigma-Completion:     0.419
   Size of expansion space: 80
   Lowest Energy          :     0.138435122508
   Maximum Energy change  :     0.000002094759 (vector 9)
   Maximum residual norm  :     0.000000371907

                       ****Iteration    6****
   Time for densities:     0.027
   Using LibInt in JK Direct
   Time for J+K (Direct):     7.204
   Time for XC-Integration:     0.525
   Time for Sigma-Completion:     0.653
   Size of expansion space: 90
   Lowest Energy          :     0.138435122157
   Maximum Energy change  :     0.000000719908 (vector 9)
   Maximum residual norm  :     0.000000334368

                       ****Iteration    7****
   Time for densities:     0.027
   Using LibInt in JK Direct
   Time for J+K (Direct):     6.657
   Time for XC-Integration:     0.553
   Time for Sigma-Completion:     0.598
   Size of expansion space: 100
   Lowest Energy          :     0.138435122154
   Maximum Energy change  :     0.000005202875 (vector 9)
   Maximum residual norm  :     0.000048257921
   Rebuilding the expansion space

                       ****Iteration    8****
   Time for densities:     0.044
   Using LibInt in JK Direct
   Time for J+K (Direct):    15.542
   Time for XC-Integration:     0.454
   Time for Sigma-Completion:     0.101
   Size of expansion space: 18
   Lowest Energy          :     0.138435122159
   Maximum Energy change  :     0.000027476122 (vector 9)
   Maximum residual norm  :     0.000004778547

                       ****Iteration    9****
   Time for densities:     0.015
   Using LibInt in JK Direct
   Time for J+K (Direct):     3.562
   Time for XC-Integration:     0.156
   Time for Sigma-Completion:     0.059
   Size of expansion space: 24
   Lowest Energy          :     0.138435122159
   Maximum Energy change  :     0.003117332515 (vector 9)
   Maximum residual norm  :     0.040815144323

                       ****Iteration   10****
   Time for densities:     0.024
   Using LibInt in JK Direct
   Time for J+K (Direct):     4.501
   Time for XC-Integration:     0.252
   Time for Sigma-Completion:     0.226
   Size of expansion space: 28
   Lowest Energy          :     0.138435122159
   Maximum Energy change  :     0.017178789942 (vector 7)
   Maximum residual norm  :     0.002024580931

                       ****Iteration   11****
   Time for densities:     0.012
   Using LibInt in JK Direct
   Time for J+K (Direct):     2.531
   Time for XC-Integration:     0.111
   Time for Sigma-Completion:     0.024
   Size of expansion space: 32
   Lowest Energy          :     0.138435122159
   Maximum Energy change  :     0.000983782718 (vector 6)
   Maximum residual norm  :     0.000066252660

                       ****Iteration   12****
   Time for densities:     0.010
   Using LibInt in JK Direct
   Time for J+K (Direct):     2.395
   Time for XC-Integration:     0.107
   Time for Sigma-Completion:     0.023
   Size of expansion space: 36
   Lowest Energy          :     0.138435122159
   Maximum Energy change  :     0.000056724130 (vector 6)
   Maximum residual norm  :     0.000012057228

                       ****Iteration   13****
   Time for densities:     0.010
   Using LibInt in JK Direct
   Time for J+K (Direct):     2.370
   Time for XC-Integration:     0.108
   Time for Sigma-Completion:     0.023
   Size of expansion space: 40
   Lowest Energy          :     0.138435122159
   Maximum Energy change  :     0.000021887580 (vector 6)
   Maximum residual norm  :     0.000008633204

                       ****Iteration   14****
   Time for densities:     0.011
   Using LibInt in JK Direct
   Time for J+K (Direct):     2.424
   Time for XC-Integration:     0.117
   Time for Sigma-Completion:     0.025
   Size of expansion space: 44
   Lowest Energy          :     0.138435122159
   Maximum Energy change  :     0.000007978747 (vector 6)
   Maximum residual norm  :     0.000001469989

                       ****Iteration   15****
   Time for densities:     0.010
   Using LibInt in JK Direct
   Time for J+K (Direct):     2.417
   Time for XC-Integration:     0.108
   Time for Sigma-Completion:     0.024
   Size of expansion space: 48
   Lowest Energy          :     0.138435122159
   Maximum Energy change  :     0.000001135922 (vector 6)
   Maximum residual norm  :     0.000000390859

                       ****Iteration   16****
   Time for densities:     0.010
   Using LibInt in JK Direct
   Time for J+K (Direct):     2.353
   Time for XC-Integration:     0.108
   Time for Sigma-Completion:     0.023
   Size of expansion space: 52
   Lowest Energy          :     0.138435122159
   Maximum Energy change  :     0.000000284856 (vector 6)
   Maximum residual norm  :     0.000000053187

      *** CONVERGENCE OF RESIDUAL NORM REACHED ***

Storing the converged CI vectors               ... benzene_0_1_wb2plyp_def2-svp.tddft.cis1

                 *** DAVIDSON DONE ***

Total time for solving the CIS problem:   180.773sec

------------------
DOUBLES CORRECTION (Double precision version)
------------------

The (D) correction will be scaled by  0.2700
Doing v(i,a)*T(i,a) terms (RI)                    ... ok
Doing u(i,j,a,b) terms for state   0              ... ok
Doing u(i,j,a,b) terms for state   1              ... ok
Doing u(i,j,a,b) terms for state   2              ... ok
Doing u(i,j,a,b) terms for state   3              ... ok
Doing u(i,j,a,b) terms for state   4              ... ok
Doing u(i,j,a,b) terms for state   5              ... ok
Doing u(i,j,a,b) terms for state   6              ... ok
Doing u(i,j,a,b) terms for state   7              ... ok
Doing u(i,j,a,b) terms for state   8              ... ok
Doing u(i,j,a,b) terms for state   9              ... ok

Contributions to the (D) correction(s) (in eV)

STATE  Final   Init.   Total   v(ext)   v(int)  v(3)    u
       omega   omega     (D)                             
-----------------------------------------------------------------------------
   0   4.074   3.767   0.307   0.405   0.642  -0.174  -0.566
   1   4.982   4.917   0.065   0.406   0.651  -0.021  -0.970
   2   4.983   4.918   0.065   0.406   0.651  -0.021  -0.970
   3   5.619   5.485   0.134   0.401   0.651  -0.044  -0.873
   4   5.569   5.861  -0.292   0.401   0.651  -0.030  -1.313
   5   6.655   6.502   0.153   0.389   0.644  -0.066  -0.815
   6   7.836   7.757   0.080   0.359   0.528  -0.049  -0.758
   7   7.840   7.760   0.079   0.359   0.528  -0.049  -0.758
   8   8.198   8.252  -0.055   0.103   0.644  -0.009  -0.793
   9   8.200   8.255  -0.055   0.104   0.644  -0.009  -0.794

(D)-timings
 V(i,a)*T(i,a) terms           ...     0.442 sec
 U(i,j,a,b) 3-internal         ...     0.238 sec
 U(i,j,a,b) 3-external         ...     3.415 sec
 U(i,j,a,b) pair terms         ...     1.461 sec
 Total measured time           ...     7.136 sec

 Time for (ab|v) I/O           ...     3.126 sec


-------------------------
TD-DFT/TDA EXCITED STATES
-------------------------

the weight of the individual excitations are printed if larger than 1.0e-02

STATE  1:  E=   0.149706 au      4.074 eV    32856.6 cm**-1
    16a ->  29a  :     0.023008 (c=  0.15168455)
    19a ->  21a  :     0.014133 (c=  0.11888336)
    19a ->  22a  :     0.220062 (c=  0.46910753)
    20a ->  21a  :     0.222122 (c=  0.47129864)
    20a ->  22a  :     0.014149 (c= -0.11895043)
    16b ->  29b  :     0.023008 (c= -0.15168455)
    19b ->  21b  :     0.014133 (c= -0.11888336)
    19b ->  22b  :     0.220062 (c= -0.46910753)
    20b ->  21b  :     0.222122 (c= -0.47129864)
    20b ->  22b  :     0.014149 (c=  0.11895043)

STATE  2:  E=   0.183092 au      4.982 eV    40184.1 cm**-1
    19a ->  21a  :     0.203819 (c= -0.45146285)
    19a ->  22a  :     0.045356 (c= -0.21296904)
    20a ->  21a  :     0.045040 (c=  0.21222527)
    20a ->  22a  :     0.202905 (c= -0.45044978)
    19b ->  21b  :     0.203819 (c=  0.45146285)
    19b ->  22b  :     0.045356 (c=  0.21296904)
    20b ->  21b  :     0.045040 (c= -0.21222527)
    20b ->  22b  :     0.202905 (c=  0.45044978)

STATE  3:  E=   0.183113 au      4.983 eV    40188.6 cm**-1
    19a ->  21a  :     0.045105 (c=  0.21237849)
    19a ->  22a  :     0.204191 (c= -0.45187542)
    20a ->  21a  :     0.202530 (c=  0.45003333)
    20a ->  22a  :     0.045291 (c=  0.21281659)
    19b ->  21b  :     0.045105 (c= -0.21237849)
    19b ->  22b  :     0.204191 (c=  0.45187542)
    20b ->  21b  :     0.202530 (c= -0.45003333)
    20b ->  22b  :     0.045291 (c= -0.21281659)

STATE  4:  E=   0.206490 au      5.619 eV    45319.4 cm**-1
    19a ->  21a  :     0.234011 (c= -0.48374707)
    19a ->  22a  :     0.015029 (c=  0.12259162)
    20a ->  21a  :     0.014952 (c=  0.12227851)
    20a ->  22a  :     0.234721 (c=  0.48447972)
    19b ->  21b  :     0.234011 (c=  0.48374707)
    19b ->  22b  :     0.015029 (c= -0.12259162)
    20b ->  21b  :     0.014952 (c= -0.12227851)
    20b ->  22b  :     0.234721 (c= -0.48447972)

STATE  5:  E=   0.204670 au      5.569 eV    44919.9 cm**-1
    19a ->  21a  :     0.234126 (c= -0.48386581)
    19a ->  22a  :     0.014947 (c=  0.12225590)
    20a ->  21a  :     0.015014 (c=  0.12253029)
    20a ->  22a  :     0.234003 (c=  0.48373845)
    19b ->  21b  :     0.234126 (c= -0.48386581)
    19b ->  22b  :     0.014947 (c=  0.12225590)
    20b ->  21b  :     0.015014 (c=  0.12253029)
    20b ->  22b  :     0.234003 (c=  0.48373845)

STATE  6:  E=   0.244572 au      6.655 eV    53677.3 cm**-1
    19a ->  21a  :     0.014569 (c=  0.12070016)
    19a ->  22a  :     0.226986 (c=  0.47643036)
    20a ->  21a  :     0.227987 (c=  0.47747953)
    20a ->  22a  :     0.014550 (c= -0.12062160)
    19b ->  21b  :     0.014569 (c=  0.12070016)
    19b ->  22b  :     0.226986 (c=  0.47643036)
    20b ->  21b  :     0.227987 (c=  0.47747953)
    20b ->  22b  :     0.014550 (c= -0.12062160)

STATE  7:  E=   0.287981 au      7.836 eV    63204.5 cm**-1
    16a ->  21a  :     0.338605 (c= -0.58189759)
    20a ->  29a  :     0.145717 (c= -0.38172898)
    16b ->  21b  :     0.338605 (c=  0.58189759)
    20b ->  29b  :     0.145717 (c=  0.38172898)

STATE  8:  E=   0.288108 au      7.840 eV    63232.3 cm**-1
    16a ->  22a  :     0.338598 (c= -0.58189163)
    19a ->  29a  :     0.145728 (c= -0.38174324)
    16b ->  22b  :     0.338598 (c=  0.58189163)
    19b ->  29b  :     0.145728 (c=  0.38174324)

STATE  9:  E=   0.301262 au      8.198 eV    66119.4 cm**-1
    16a ->  24a  :     0.018587 (c=  0.13633485)
    19a ->  23a  :     0.436360 (c= -0.66057549)
    20a ->  23a  :     0.023985 (c=  0.15487147)
    16b ->  24b  :     0.018587 (c= -0.13633485)
    19b ->  23b  :     0.436360 (c=  0.66057549)
    20b ->  23b  :     0.023985 (c= -0.15487147)

STATE 10:  E=   0.301329 au      8.200 eV    66134.0 cm**-1
    16a ->  25a  :     0.018449 (c= -0.13582694)
    19a ->  23a  :     0.023967 (c=  0.15481272)
    20a ->  23a  :     0.436292 (c=  0.66052382)
    16b ->  25b  :     0.018449 (c=  0.13582694)
    19b ->  23b  :     0.023967 (c= -0.15481272)
    20b ->  23b  :     0.436292 (c= -0.66052382)


-----------------------------
TD-DFT/TDA-EXCITATION SPECTRA
-----------------------------

Center of mass = (  0.0090, -0.0104,  0.0009)
Calculating the Dipole integrals                  ... done
Transforming integrals                            ... done
Calculating the Linear Momentum integrals         ... done
Transforming integrals                            ... done
Calculating angular momentum integrals            ... done
Transforming integrals                            ... done

-----------------------------------------------------------------------------
         ABSORPTION SPECTRUM VIA TRANSITION ELECTRIC DIPOLE MOMENTS
-----------------------------------------------------------------------------
State   Energy    Wavelength  fosc         T2        TX        TY        TZ  
        (cm-1)      (nm)                 (au**2)    (au)      (au)      (au) 
-----------------------------------------------------------------------------
   1   32856.6    304.4   0.000000000   0.00000  -0.00000  -0.00000  -0.00000
   2   40184.1    248.9   0.000000000   0.00000  -0.00000  -0.00000  -0.00000
   3   40188.6    248.8   0.000000000   0.00000  -0.00000  -0.00000  -0.00000
   4   45319.4    220.7   0.000000000   0.00000   0.00000   0.00000   0.00000
   5   44919.9    222.6   0.000000040   0.00000  -0.00019  -0.00051  -0.00001
   6   53677.3    186.3   0.000000950   0.00001   0.00013  -0.00241  -0.00009
   7   63204.5    158.2   0.000000000   0.00000   0.00000   0.00000   0.00000
   8   63232.3    158.1   0.000000000   0.00000   0.00000   0.00000   0.00000
   9   66119.4    151.2   0.000000000   0.00000   0.00000   0.00000   0.00000
  10   66134.0    151.2   0.000000000   0.00000  -0.00000  -0.00000  -0.00000

-----------------------------------------------------------------------------
         ABSORPTION SPECTRUM VIA TRANSITION VELOCITY DIPOLE MOMENTS
-----------------------------------------------------------------------------
State   Energy    Wavelength   fosc        P2         PX        PY        PZ  
        (cm-1)      (nm)                 (au**2)     (au)      (au)      (au) 
-----------------------------------------------------------------------------
   1   32856.6    304.4   0.000000000   0.00000   0.00000   0.00000   0.00000
   2   40184.1    248.9   0.000000000   0.00000   0.00000   0.00000   0.00000
   3   40188.6    248.8   0.000000000   0.00000   0.00000   0.00000   0.00000
   4   45319.4    220.7   0.000000000   0.00000  -0.00000  -0.00000  -0.00000
   5   44919.9    222.6   0.000000111   0.00000  -0.00017   0.00008  -0.00000
   6   53677.3    186.3   0.000000162   0.00000  -0.00011  -0.00022  -0.00001
   7   63204.5    158.2   0.000000000   0.00000  -0.00000  -0.00000  -0.00000
   8   63232.3    158.1   0.000000000   0.00000  -0.00000  -0.00000  -0.00000
   9   66119.4    151.2   0.000000000   0.00000  -0.00000  -0.00000  -0.00000
  10   66134.0    151.2   0.000000000   0.00000   0.00000   0.00000   0.00000

-------------------------------------------------------------------
                             CD SPECTRUM
-------------------------------------------------------------------
State  Energy     Wavelength     R         MX        MY        MZ   
       (cm-1)       (nm)     (1e40*cgs)   (au)      (au)      (au)  
-------------------------------------------------------------------
   1   32856.6    304.4     -0.00000   0.00000   0.00000   0.00000
   2   40184.1    248.9      0.00000   0.00000  -0.00000   0.00000
   3   40188.6    248.8      0.00000   0.00000  -0.00000  -0.00000
   4   45319.4    220.7      0.00000   0.00000  -0.00000   0.00000
   5   44919.9    222.6     -0.00000   0.00000   0.00001  -0.00001
   6   53677.3    186.3      0.00000  -0.00000   0.00000  -0.00008
   7   63204.5    158.2     -0.00000  -0.00000  -0.00000   0.00000
   8   63232.3    158.1     -0.00000   0.00000  -0.00000   0.00000
   9   66119.4    151.2     -0.00000  -0.00000  -0.00000   0.00000
  10   66134.0    151.2     -0.00000   0.00000   0.00000  -0.00000

Total run time:      188.477 sec

           *** ORCA-CIS/TD-DFT FINISHED WITHOUT ERROR ***

-----------------------
CIS/TD-DFT TOTAL ENERGY
-----------------------

    E(SCF)  =   -231.303944938 Eh
    DE(CIS) =      0.149705769 Eh (Root  1)
    ----------------------------- ---------
    E(tot)  =   -231.154239170 Eh


-------------------------   --------------------
FINAL SINGLE POINT ENERGY      -231.154239169688
-------------------------   --------------------


                            ***************************************
                            *     ORCA property calculations      *
                            ***************************************


  WARNING: The energy has been calculated at the MP2 level but the densities
           used in the property calculations are still SCF densities
           MP2 response densities have not been calculated 
           use %mp2 Density relaxed end
           or  %mp2 Density unrelaxed end

                                    ---------------------
                                    Active property flags
                                    ---------------------
   (+) Dipole Moment


------------------------------------------------------------------------------
                       ORCA ELECTRIC PROPERTIES CALCULATION
------------------------------------------------------------------------------

Dipole Moment Calculation                       ... on
Quadrupole Moment Calculation                   ... off
Polarizability Calculation                      ... off
GBWName                                         ... benzene_0_1_wb2plyp_def2-svp.tddft.gbw
Electron density file                           ... benzene_0_1_wb2plyp_def2-svp.tddft.scfp
The origin for moment calculation is the CENTER OF MASS  = ( 0.009031, -0.010381  0.000946)

-------------
DIPOLE MOMENT
-------------
                                X             Y             Z
Electronic contribution:     -0.00000       0.00003      -0.00000
Nuclear contribution   :      0.00000      -0.00004       0.00000
                        -----------------------------------------
Total Dipole Moment    :      0.00000      -0.00001       0.00000
                        -----------------------------------------
Magnitude (a.u.)       :      0.00001
Magnitude (Debye)      :      0.00002



--------------------
Rotational spectrum 
--------------------
 
Rotational constants in cm-1:     0.187435     0.187358     0.093698 
Rotational constants in MHz :  5619.161070  5616.840053  2809.000163 

 Dipole components along the rotational axes: 
x,y,z [a.u.] :     0.000003    -0.000006     0.000001 
x,y,z [Debye]:     0.000007    -0.000015     0.000002 

 

Timings for individual modules:

Sum of individual times         ...      204.746 sec (=   3.412 min)
GTO integral calculation        ...        2.240 sec (=   0.037 min)   1.1 %
SCF iterations                  ...        4.451 sec (=   0.074 min)   2.2 %
MP2 module                      ...        7.673 sec (=   0.128 min)   3.7 %
CIS module                      ...      190.383 sec (=   3.173 min)  93.0 %
                             ****ORCA TERMINATED NORMALLY****
TOTAL RUN TIME: 0 days 0 hours 3 minutes 27 seconds 189 msec
