
                                 *****************
                                 * O   R   C   A *
                                 *****************

           --- An Ab Initio, DFT and Semiempirical electronic structure package ---

                  #######################################################
                  #                        -***-                        #
                  #          Department of theory and spectroscopy      #
                  #               Directorship: Frank Neese             #
                  #        Max Planck Institute fuer Kohlenforschung    #
                  #                Kaiser Wilhelm Platz 1               #
                  #                 D-45470 Muelheim/Ruhr               #
                  #                      Germany                        #
                  #                                                     #
                  #                  All rights reserved                #
                  #                        -***-                        #
                  #######################################################


                         Program Version 4.2.0 -  RELEASE  -


 With contributions from (in alphabetic order):
   Daniel Aravena         : Magnetic Suceptibility
   Michael Atanasov       : Ab Initio Ligand Field Theory (pilot matlab implementation)
   Alexander A. Auer      : GIAO ZORA, VPT2
   Ute Becker             : Parallelization
   Giovanni Bistoni       : ED, misc. LED, open-shell LED, HFLED
   Martin Brehm           : Molecular dynamics
   Dmytro Bykov           : SCF Hessian
   Vijay G. Chilkuri      : MRCI spin determinant printing, contributions to CSF-ICE
   Dipayan Datta          : RHF DLPNO-CCSD density
   Achintya Kumar Dutta   : EOM-CC, STEOM-CC
   Dmitry Ganyushin       : Spin-Orbit,Spin-Spin,Magnetic field MRCI
   Miquel Garcia          : C-PCM Hessian, Gaussian charge scheme
   Yang Guo               : DLPNO-NEVPT2, CIM, IAO-localization
   Andreas Hansen         : Spin unrestricted coupled pair/coupled cluster methods
   Benjamin Helmich-Paris : CASSCF linear response (MC-RPA)
   Lee Huntington         : MR-EOM, pCC
   Robert Izsak           : Overlap fitted RIJCOSX, COSX-SCS-MP3, EOM
   Christian Kollmar      : KDIIS, OOCD, Brueckner-CCSD(T), CCSD density
   Simone Kossmann        : Meta GGA functionals, TD-DFT gradient, OOMP2, MP2 Hessian
   Martin Krupicka        : AUTO-CI
   Lucas Lang             : DCDCAS
   Dagmar Lenk            : GEPOL surface, SMD
   Dimitrios Liakos       : Extrapolation schemes; Compound Job, initial MDCI parallelization
   Dimitrios Manganas     : Further ROCIS development; embedding schemes
   Dimitrios Pantazis     : SARC Basis sets
   Taras Petrenko         : DFT Hessian,TD-DFT gradient, ASA, ECA, R-Raman, ABS, FL, XAS/XES, NRVS
   Peter Pinski           : DLPNO-MP2, DLPNO-MP2 Gradient
   Christoph Reimann      : Effective Core Potentials
   Marius Retegan         : Local ZFS, SOC
   Christoph Riplinger    : Optimizer, TS searches, QM/MM, DLPNO-CCSD(T), (RO)-DLPNO pert. Triples
   Tobias Risthaus        : Range-separated hybrids, TD-DFT gradient, RPA, STAB
   Michael Roemelt        : Original ROCIS implementation
   Masaaki Saitow         : Open-shell DLPNO-CCSD energy and density
   Barbara Sandhoefer     : DKH picture change effects
   Avijit Sen             : IP-ROCIS
   Kantharuban Sivalingam : CASSCF convergence, NEVPT2, FIC-MRCI
   Bernardo de Souza      : ESD, SOC TD-DFT
   Georgi Stoychev        : AutoAux, RI-MP2 NMR
   Willem Van den Heuvel  : Paramagnetic NMR
   Boris Wezisla          : Elementary symmetry handling
   Frank Wennmohs         : Technical directorship


 We gratefully acknowledge several colleagues who have allowed us to
 interface, adapt or use parts of their codes:
   Stefan Grimme, W. Hujo, H. Kruse,             : VdW corrections, initial TS optimization,
                  C. Bannwarth                     DFT functionals, gCP, sTDA/sTD-DF
   Ed Valeev, F. Pavosevic, A. Kumar             : LibInt (2-el integral package), F12 methods
   Garnet Chan, S. Sharma, J. Yang, R. Olivares  : DMRG
   Ulf Ekstrom                                   : XCFun DFT Library
   Mihaly Kallay                                 : mrcc  (arbitrary order and MRCC methods)
   Andreas Klamt, Michael Diedenhofen            : otool_cosmo (COSMO solvation model)
   Jiri Pittner, Ondrej Demel                    : Mk-CCSD
   Frank Weinhold                                : gennbo (NPA and NBO analysis)
   Christopher J. Cramer and Donald G. Truhlar   : smd solvation model
   Lars Goerigk                                  : TD-DFT with DH, B97 family of functionals
   V. Asgeirsson, H. Jonsson                     : NEB implementation
   FAccTs GmbH                                   : IRC, NEB, NEB-TS, Multilevel, MM, QM/MM, CI optimization
   S Lehtola, MJT Oliveira, MAL Marques          : LibXC Library


 Your calculation uses the libint2 library for the computation of 2-el integrals
 For citations please refer to: http://libint.valeyev.net

 Your ORCA version has been built with support for libXC version: 4.2.3
 For citations please refer to: https://tddft.org/programs/libxc/

 This ORCA versions uses:
   CBLAS   interface :  Fast vector & matrix operations
   LAPACKE interface :  Fast linear algebra routines
   SCALAPACK package :  Parallel linear algebra routines


----- Orbital basis set information -----
Your calculation utilizes the basis: def2-QZVPP
   F. Weigend and R. Ahlrichs, Phys. Chem. Chem. Phys. 7, 3297 (2005).

================================================================================
                                        WARNINGS
                       Please study these warnings very carefully!
================================================================================


WARNING: Broken symmetry calculations need fully converged wavefunctions
  ===> : Setting SCFConvForced true
         You can overwrite this default with %scf ConvForced false 


INFO   : the flag for use of LIBINT has been found!

================================================================================
                                       INPUT FILE
================================================================================
NAME = H2_0_1_UB3LYP_def2-qzvpp.sp.inp
|  1> !uks b3lyp def2-qzvpp tightscf
|  2> !normalprint
|  3> 
|  4> %paras
|  5>   rHH [19.952623149688797 16.43574799372698 13.538761800225439 11.152402139117903 9.1866653175426 7.567411809920191 6.233570019315557 5.134832907437553 4.229760619613384 3.4842175435383975 2.870084854071569 2.3641999865500756 1.9474830399087562 1.6042171611153242 1.32145576997553 1.088534267260644 0.8966678097917788 0.7386199822079362 0.6084298690766428 0.5011872336272722]
|  6> end
|  7> 
|  8> %scf
|  9>   maxiter 500
| 10>   brokensym 1,1
| 11> end
| 12> 
| 13> *int 0 1
| 14> H 0 0 0 0 0 0
| 15> H 1 0 0 {rHH} 0 0
| 16> *
| 17> 
| 18>                          ****END OF INPUT****
================================================================================

                       ******************************
                       * Parameter Scan Calculation *
                       ******************************

Trajectory settings:
    -> SCF surface will be mapped

There are 1 parameter(s) to be scanned
           RHH: user defined at 20 points
There will be   20 energy evaluations


         *************************************************************
                                TRAJECTORY STEP   1
                RHH  :  19.95262315
         *************************************************************
---------------------------------
CARTESIAN COORDINATES (ANGSTROEM)
---------------------------------
  H      0.000000    0.000000    0.000000
  H     19.952623    0.000000    0.000000

----------------------------
CARTESIAN COORDINATES (A.U.)
----------------------------
  NO LB      ZA    FRAG     MASS         X           Y           Z
   0 H     1.0000    0     1.008    0.000000    0.000000    0.000000
   1 H     1.0000    0     1.008   37.704993    0.000000    0.000000

--------------------------------
INTERNAL COORDINATES (ANGSTROEM)
--------------------------------
 H      0   0   0     0.000000000000     0.00000000     0.00000000
 H      1   0   0    19.952623149689     0.00000000     0.00000000

---------------------------
INTERNAL COORDINATES (A.U.)
---------------------------
 H      0   0   0     0.000000000000     0.00000000     0.00000000
 H      1   0   0    37.704993406249     0.00000000     0.00000000

---------------------
BASIS SET INFORMATION
---------------------
There are 1 groups of distinct atoms

 Group   1 Type H   : 7s3p2d1f contracted to 4s3p2d1f pattern {4111/111/11/1}

Atom   0H    basis set group =>   1
Atom   1H    basis set group =>   1

Checking for AutoStart:
The File: H2_0_1_UB3LYP_def2-qzvpp.sp.gbw exists
Trying to determine its content:
     ... Fine, the file contains calculation information
     ... Fine, the calculation information was read
     ... Fine, the file contains a basis set
     ... Fine, the basis set was read
     ... Fine, the file contains a geometry
     ... Fine, the geometry was read
     ... Fine, the file contains a set of orbitals
     ... Fine, the orbitals can be read
     => possible old guess file was deleted
     => GBW file was renamed to GES file
     => GES file is set as startup file
     => Guess is set to MORead
     ... now leaving AutoStart

------------------------------------------------------------------------------
                           ORCA GTO INTEGRAL CALCULATION
------------------------------------------------------------------------------

                         BASIS SET STATISTICS AND STARTUP INFO

 # of primitive gaussian shells          ...   26
 # of primitive gaussian functions       ...   66
 # of contracted shells                  ...   20
 # of contracted basis functions         ...   60
 Highest angular momentum                ...    3
 Maximum contraction depth               ...    4
 Integral package used                   ... LIBINT
 Integral threshhold            Thresh   ...  2.500e-11
 Primitive cut-off              TCut     ...  2.500e-12


------------------------------ INTEGRAL EVALUATION ----------------------------


 * One electron integrals 
 Pre-screening matrix                    ... done
 Shell pair data                         ... done (   0.000 sec)

-------------------------------------------------------------------------------
                                 ORCA SCF
-------------------------------------------------------------------------------

------------
SCF SETTINGS
------------
Hamiltonian:
 Density Functional     Method          .... DFT(GTOs)
 Exchange Functional    Exchange        .... B88
   X-Alpha parameter    XAlpha          ....  0.666667
   Becke's b parameter  XBeta           ....  0.004200
 Correlation Functional Correlation     .... LYP
 LDA part of GGA corr.  LDAOpt          .... VWN-5
 Gradients option       PostSCFGGA      .... off
 Hybrid DFT is turned on
   Fraction HF Exchange ScalHFX         ....  0.200000
   Scaling of DF-GGA-X  ScalDFX         ....  0.720000
   Scaling of DF-GGA-C  ScalDFC         ....  0.810000
   Scaling of DF-LDA-C  ScalLDAC        ....  1.000000
   Perturbative correction              ....  0.000000
   Density functional embedding theory  .... OFF
   NL short-range parameter             ....  4.800000


General Settings:
 Integral files         IntName         .... H2_0_1_UB3LYP_def2-qzvpp.sp
 Hartree-Fock type      HFTyp           .... UHF
 Total Charge           Charge          ....    0
 Multiplicity           Mult            ....    1
 Number of Electrons    NEL             ....    2
 Basis Dimension        Dim             ....   60
 Nuclear Repulsion      ENuc            ....      0.0265216861 Eh

Convergence Acceleration:
 DIIS                   CNVDIIS         .... on
   Start iteration      DIISMaxIt       ....    12
   Startup error        DIISStart       ....  0.200000
   # of expansion vecs  DIISMaxEq       ....     5
   Bias factor          DIISBfac        ....   1.050
   Max. coefficient     DIISMaxC        ....  10.000
 Newton-Raphson         CNVNR           .... off
 SOSCF                  CNVSOSCF        .... off
 Level Shifting         CNVShift        .... on
   Level shift para.    LevelShift      ....    0.2500
   Turn off err/grad.   ShiftErr        ....    0.0010
 Zerner damping         CNVZerner       .... off
 Static damping         CNVDamp         .... on
   Fraction old density DampFac         ....    0.7000
   Max. Damping (<1)    DampMax         ....    0.9800
   Min. Damping (>=0)   DampMin         ....    0.0000
   Turn off err/grad.   DampErr         ....    0.1000
 Fernandez-Rico         CNVRico         .... off

SCF Procedure:
 Maximum # iterations   MaxIter         ....   500
 SCF integral mode      SCFMode         .... Direct
   Integral package                     .... LIBINT
 Reset frequency        DirectResetFreq ....    20
 Integral Threshold     Thresh          ....  2.500e-11 Eh
 Primitive CutOff       TCut            ....  2.500e-12 Eh

Convergence Tolerance:
 Convergence Check Mode ConvCheckMode   .... Total+1el-Energy
 Convergence forced     ConvForced      .... 1
 Energy Change          TolE            ....  1.000e-08 Eh
 1-El. energy change                    ....  1.000e-05 Eh
 DIIS Error             TolErr          ....  5.000e-07


The Broken Symmetry feature is operative
   Number of electrons in the 'A' domain  ... 1
   Number of electrons in the 'B' domain  ... 1
We will first do a calculation with S=  1.0
and then try to converge to the broken symmetry state with Ms=  0.0


Diagonalization of the overlap matrix:
Smallest eigenvalue                        ... 3.391e-02
Time for diagonalization                   ...    0.001 sec
Threshold for overlap eigenvalues          ... 1.000e-08
Number of eigenvalues below threshold      ... 0
Time for construction of square roots      ...    0.003 sec
Total time needed                          ...    0.004 sec

---------------------
INITIAL GUESS: MOREAD
---------------------
Guess MOs are being read from file: H2_0_1_UB3LYP_def2-qzvpp.sp.ges
Input geometry compatible with but different from current geometry
Input basis set matches current basis set (good)
MOs were renormalized
MOs were reorthogonalized (Cholesky)
                      ------------------
                      INITIAL GUESS DONE (   0.0 sec)
                      ------------------
-------------------
DFT GRID GENERATION
-------------------

General Integration Accuracy     IntAcc      ...  4.340
Radial Grid Type                 RadialGrid  ... Gauss-Chebyshev
Angular Grid (max. acc.)         AngularGrid ... Lebedev-110
Angular grid pruning method      GridPruning ... 3 (G Style)
Weight generation scheme         WeightScheme... Becke
Basis function cutoff            BFCut       ...    1.0000e-11
Integration weight cutoff        WCut        ...    1.0000e-14
Grids for H and He will be reduced by one unit

# of grid points (after initial pruning)     ...   1588 (   0.0 sec)
# of grid points (after weights+screening)   ...   1588 (   0.0 sec)
nearest neighbour list constructed           ...    0.0 sec
Grid point re-assignment to atoms done       ...    0.0 sec
Grid point division into batches done        ...    0.0 sec
Reduced shell lists constructed in    0.0 sec

Total number of grid points                  ...     1588
Total number of batches                      ...       26
Average number of points per batch           ...       61
Average number of grid points per atom       ...      794
Average number of shells per batch           ...     9.63 (48.15%)
Average number of basis functions per batch  ...    28.89 (48.15%)
Average number of large shells per batch     ...     9.63 (100.00%)
Average number of large basis fcns per batch ...    28.89 (100.00%)
Maximum spatial batch extension              ...  17.62, 21.59, 21.59 au
Average spatial batch extension              ...   6.09,  8.92,  9.49 au

Time for grid setup =    0.006 sec

--------------
SCF ITERATIONS
--------------
               ***  Starting incremental Fock matrix formation  ***

                         ----------------------------
                         !        ITERATION     0   !
                         ----------------------------
   Total Energy        :      -0.489296153165 Eh
   Energy Change       :      -0.489296153165 Eh
   MAX-DP              :       0.270520322999
   RMS-DP              :       0.007904498144
   Actual Damping      :       0.7000
   Actual Level Shift  :       0.2500 Eh
   Int. Num. El.       :     1.99999524 (UP=    1.99999524 DN=    0.00000000)
   Exchange            :    -0.47817005
   Correlation         :    -0.00800098


                         ----------------------------
                         !        ITERATION     1   !
                         ----------------------------
   Total Energy        :      -0.617367463698 Eh
   Energy Change       :      -0.128071310534 Eh
   MAX-DP              :       0.206762248677
   RMS-DP              :       0.006789100916
   Actual Damping      :       0.7000
   Actual Level Shift  :       0.2500 Eh
   Int. Num. El.       :     1.99999656 (UP=    1.99999656 DN=    0.00000000)
   Exchange            :    -0.49930932
   Correlation         :    -0.00824491

                               ***Turning on DIIS***

                         ----------------------------
                         !        ITERATION     2   !
                         ----------------------------
   Total Energy        :      -0.723373366741 Eh
   Energy Change       :      -0.106005903043 Eh
   MAX-DP              :       0.146172917975
   RMS-DP              :       0.005031605270
   Actual Damping      :       0.7000
   Actual Level Shift  :       0.2500 Eh
   Int. Num. El.       :     1.99999752 (UP=    1.99999752 DN=    0.00000000)
   Exchange            :    -0.50564263
   Correlation         :    -0.00835764
   DIIS-Error          :       0.102114989097


                         ----------------------------
                         !        ITERATION     3   !
                         ----------------------------
   Total Energy        :      -0.802238317332 Eh
   Energy Change       :      -0.078864950591 Eh
   MAX-DP              :       0.356410286862
   RMS-DP              :       0.012003805488
   Actual Damping      :       0.0000
   Actual Level Shift  :       0.2500 Eh
   Int. Num. El.       :     1.99999814 (UP=    1.99999814 DN=    0.00000000)
   Exchange            :    -0.50488655
   Correlation         :    -0.00839883
   DIIS-Error          :       0.077457545031
   DIIS coefficients:
     -1.61626   2.61626


                         ----------------------------
                         !        ITERATION     4   !
                         ----------------------------
   Total Energy        :      -0.997591918684 Eh
   Energy Change       :      -0.195353601352 Eh
   MAX-DP              :       0.009455639826
   RMS-DP              :       0.000300927721
   Actual Damping      :       0.0000
   Actual Level Shift  :       0.2500 Eh
   Int. Num. El.       :     1.99999950 (UP=    1.99999950 DN=    0.00000000)
   Exchange            :    -0.49278284
   Correlation         :    -0.00842960
   DIIS-Error          :       0.008053403086
   DIIS coefficients:
     -0.01317  -0.05152   1.06469


                         ----------------------------
                         !        ITERATION     5   !
                         ----------------------------
   Total Energy        :      -0.997985724373 Eh
   Energy Change       :      -0.000393805689 Eh
   MAX-DP              :       0.005541167384
   RMS-DP              :       0.000135361726
   Actual Damping      :       0.0000
   Actual Level Shift  :       0.2500 Eh
   Int. Num. El.       :     1.99999944 (UP=    1.99999944 DN=    0.00000000)
   Exchange            :    -0.48654259
   Correlation         :    -0.00837716
   DIIS-Error          :       0.002382456911
   DIIS coefficients:
      0.00099  -0.00128  -0.27152   1.27181


                         ----------------------------
                         !        ITERATION     6   !
                         ----------------------------
   Total Energy        :      -0.998028893699 Eh
   Energy Change       :      -0.000043169326 Eh
   MAX-DP              :       0.003512926719
   RMS-DP              :       0.000083041273
   Actual Damping      :       0.0000
   Actual Level Shift  :       0.0000 Eh
   Int. Num. El.       :     1.99999941 (UP=    1.99999941 DN=    0.00000000)
   Exchange            :    -0.48482591
   Correlation         :    -0.00836146
   DIIS-Error          :       0.000842906325
   DIIS coefficients:
      0.00032   0.00002  -0.02367  -0.33911   1.36245


                         ----------------------------
                         !        ITERATION     7   !
                         ----------------------------
   Total Energy        :      -0.998035552637 Eh
   Energy Change       :      -0.000006658938 Eh
   MAX-DP              :       0.000128361391
   RMS-DP              :       0.000002633747
   Actual Damping      :       0.0000
   Actual Level Shift  :       0.0000 Eh
   Int. Num. El.       :     1.99999940 (UP=    1.99999940 DN=    0.00000000)
   Exchange            :    -0.48386323
   Correlation         :    -0.00835253
   DIIS-Error          :       0.000022814410
   DIIS coefficients:
      1.02488   0.00004   0.00377  -0.00578  -0.02292

                 **** Energy Check signals convergence ****

               *****************************************************
               *                     SUCCESS                       *
               *           SCF CONVERGED AFTER   8 CYCLES          *
               *****************************************************

Setting up the final grid:

General Integration Accuracy     IntAcc      ...  4.670
Radial Grid Type                 RadialGrid  ... Gauss-Chebyshev
Angular Grid (max. acc.)         AngularGrid ... Lebedev-302
Angular grid pruning method      GridPruning ... 3 (G Style)
Weight generation scheme         WeightScheme... Becke
Basis function cutoff            BFCut       ...    1.0000e-11
Integration weight cutoff        WCut        ...    1.0000e-14
Grids for H and He will be reduced by one unit

# of grid points (after initial pruning)     ...   6788 (   0.0 sec)
# of grid points (after weights+screening)   ...   6788 (   0.0 sec)
nearest neighbour list constructed           ...    0.0 sec
Grid point re-assignment to atoms done       ...    0.0 sec
Grid point division into batches done        ...    0.0 sec
Reduced shell lists constructed in    0.0 sec

Total number of grid points                  ...     6788
Total number of batches                      ...      108
Average number of points per batch           ...       62
Average number of grid points per atom       ...     3394
Average number of shells per batch           ...     9.14 (45.69%)
Average number of basis functions per batch  ...    26.97 (44.95%)
Average number of large shells per batch     ...     8.64 (94.58%)
Average number of large basis fcns per batch ...    25.19 (93.40%)
Maximum spatial batch extension              ...  15.43, 15.43, 15.43 au
Average spatial batch extension              ...   4.52,  4.60,  4.61 au

Final grid set up in    0.0 sec
Final integration                            ... done (   0.0 sec)
Change in XC energy                          ...     0.000000022
Integrated number of electrons               ...     1.999999400
Previous integrated no of electrons          ...     1.999999397

----------------
TOTAL SCF ENERGY
----------------

Total Energy       :           -0.99803554 Eh             -27.15793 eV

Components:
Nuclear Repulsion  :            0.02652169 Eh               0.72169 eV
Electronic Energy  :           -1.02455722 Eh             -27.87962 eV
One Electron Energy:           -1.05223056 Eh             -28.63265 eV
Two Electron Energy:            0.02767334 Eh               0.75303 eV

Virial components:
Potential Energy   :           -1.99216589 Eh             -54.20959 eV
Kinetic Energy     :            0.99413036 Eh              27.05166 eV
Virial Ratio       :            2.00392823


DFT components:
N(Alpha)           :        1.999999399599 electrons
N(Beta)            :        0.000000000021 electrons
N(Total)           :        1.999999399620 electrons
E(X)               :       -0.483856048825 Eh       
E(C)               :       -0.008352422778 Eh       
E(XC)              :       -0.492208471604 Eh       
DFET-embed. en.    :        0.000000000000 Eh       

---------------
SCF CONVERGENCE
---------------

  Last Energy change         ...   -4.3105e-09  Tolerance :   1.0000e-08
  Last MAX-Density change    ...    7.2597e-06  Tolerance :   1.0000e-07
  Last RMS-Density change    ...    1.5102e-07  Tolerance :   5.0000e-09
  Last DIIS Error            ...    1.4104e-06  Tolerance :   5.0000e-07

             **** THE GBW FILE WAS UPDATED (H2_0_1_UB3LYP_def2-qzvpp.sp.gbw) ****
             **** DENSITY FILE WAS UPDATED (H2_0_1_UB3LYP_def2-qzvpp.sp.scfp) ****
             **** ENERGY FILE WAS UPDATED (H2_0_1_UB3LYP_def2-qzvpp.sp.en.tmp) ****
----------------------
UHF SPIN CONTAMINATION
----------------------

Warning: in a DFT calculation there is little theoretical justification to 
         calculate <S**2> as in Hartree-Fock theory. We will do it anyways
         but you should keep in mind that the values have only limited relevance

Expectation value of <S**2>     :     2.000000
Ideal value S*(S+1) for S=1.0   :     2.000000
Deviation                       :     0.000000

             **** THE GBW FILE WAS UPDATED (H2_0_1_UB3LYP_def2-qzvpp.sp.gbw) ****
             **** DENSITY FILE WAS UPDATED (H2_0_1_UB3LYP_def2-qzvpp.sp.scfp) ****
----------------
ORBITAL ENERGIES
----------------
                 SPIN UP ORBITALS
  NO   OCC          E(Eh)            E(eV) 
   0   1.0000      -0.318917        -8.6782 
   1   1.0000      -0.318917        -8.6782 
   2   0.0000       0.147347         4.0095 
   3   0.0000       0.147347         4.0095 
   4   0.0000       0.397123        10.8063 
   5   0.0000       0.397123        10.8063 
   6   0.0000       0.397123        10.8063 
   7   0.0000       0.397123        10.8063 
   8   0.0000       0.397123        10.8063 
   9   0.0000       0.397123        10.8063 
  10   0.0000       0.981194        26.6996 
  11   0.0000       0.981194        26.6996 
  12   0.0000       1.848897        50.3110 
  13   0.0000       1.848897        50.3110 
  14   0.0000       1.848897        50.3110 
  15   0.0000       1.848897        50.3110 
  16   0.0000       1.848897        50.3110 
  17   0.0000       1.848897        50.3110 
  18   0.0000       1.848897        50.3110 
  19   0.0000       1.848897        50.3110 
  20   0.0000       1.848897        50.3110 
  21   0.0000       1.848897        50.3110 
  22   0.0000       2.100986        57.1707 
  23   0.0000       2.100986        57.1707 
  24   0.0000       2.100986        57.1707 
  25   0.0000       2.100986        57.1707 
  26   0.0000       2.100987        57.1708 
  27   0.0000       2.100987        57.1708 
  28   0.0000       4.884542       132.9151 
  29   0.0000       4.884542       132.9151 
  30   0.0000       5.748370       156.4211 
  31   0.0000       5.748370       156.4211 
  32   0.0000       5.748370       156.4211 
  33   0.0000       5.748370       156.4211 
  34   0.0000       5.748370       156.4211 
  35   0.0000       5.748370       156.4211 
  36   0.0000       5.748371       156.4211 
  37   0.0000       5.748371       156.4211 
  38   0.0000       5.748371       156.4211 
  39   0.0000       5.748371       156.4211 
  40   0.0000       5.748371       156.4211 
  41   0.0000       5.748371       156.4211 
  42   0.0000       5.748371       156.4211 
  43   0.0000       5.748371       156.4211 
  44   0.0000       7.354344       200.1219 
  45   0.0000       7.354344       200.1219 
  46   0.0000       7.354344       200.1219 
  47   0.0000       7.354344       200.1219 
  48   0.0000       7.354344       200.1219 
  49   0.0000       7.354344       200.1219 
  50   0.0000       7.741715       210.6628 
  51   0.0000       7.741715       210.6628 
  52   0.0000       7.741715       210.6628 
  53   0.0000       7.741715       210.6628 
  54   0.0000       7.741715       210.6628 
  55   0.0000       7.741715       210.6628 
  56   0.0000       7.741813       210.6654 
  57   0.0000       7.741813       210.6654 
  58   0.0000       7.741813       210.6654 
  59   0.0000       7.741813       210.6654 

                 SPIN DOWN ORBITALS
  NO   OCC          E(Eh)            E(eV) 
   0   0.0000      -0.035331        -0.9614 
   1   0.0000      -0.035331        -0.9614 
   2   0.0000       0.260934         7.1004 
   3   0.0000       0.260934         7.1004 
   4   0.0000       0.522450        14.2166 
   5   0.0000       0.522450        14.2166 
   6   0.0000       0.522450        14.2166 
   7   0.0000       0.522450        14.2166 
   8   0.0000       0.522450        14.2166 
   9   0.0000       0.522450        14.2166 
  10   0.0000       1.190857        32.4049 
  11   0.0000       1.190857        32.4049 
  12   0.0000       2.008489        54.6538 
  13   0.0000       2.008489        54.6538 
  14   0.0000       2.008489        54.6538 
  15   0.0000       2.008489        54.6538 
  16   0.0000       2.008489        54.6538 
  17   0.0000       2.008489        54.6538 
  18   0.0000       2.008490        54.6538 
  19   0.0000       2.008490        54.6538 
  20   0.0000       2.008490        54.6538 
  21   0.0000       2.008490        54.6538 
  22   0.0000       2.317826        63.0712 
  23   0.0000       2.317826        63.0712 
  24   0.0000       2.317826        63.0713 
  25   0.0000       2.317826        63.0713 
  26   0.0000       2.317826        63.0713 
  27   0.0000       2.317826        63.0713 
  28   0.0000       5.309796       144.4869 
  29   0.0000       5.309796       144.4869 
  30   0.0000       5.964304       162.2970 
  31   0.0000       5.964304       162.2970 
  32   0.0000       5.964304       162.2970 
  33   0.0000       5.964304       162.2970 
  34   0.0000       5.964304       162.2970 
  35   0.0000       5.964304       162.2970 
  36   0.0000       5.964309       162.2971 
  37   0.0000       5.964309       162.2971 
  38   0.0000       5.964310       162.2971 
  39   0.0000       5.964310       162.2971 
  40   0.0000       5.964310       162.2971 
  41   0.0000       5.964310       162.2971 
  42   0.0000       5.964310       162.2971 
  43   0.0000       5.964310       162.2971 
  44   0.0000       7.694884       209.3884 
  45   0.0000       7.694884       209.3884 
  46   0.0000       7.694884       209.3884 
  47   0.0000       7.694884       209.3884 
  48   0.0000       7.694884       209.3884 
  49   0.0000       7.694884       209.3884 
  50   0.0000       8.033258       218.5961 
  51   0.0000       8.033258       218.5961 
  52   0.0000       8.033258       218.5961 
  53   0.0000       8.033258       218.5961 
  54   0.0000       8.033258       218.5961 
  55   0.0000       8.033258       218.5961 
  56   0.0000       8.033452       218.6013 
  57   0.0000       8.033452       218.6013 
  58   0.0000       8.033452       218.6013 
  59   0.0000       8.033452       218.6013 

                    ********************************
                    * MULLIKEN POPULATION ANALYSIS *
                    ********************************

--------------------------------------------
MULLIKEN ATOMIC CHARGES AND SPIN POPULATIONS
--------------------------------------------
   0 H :   -0.000000    1.000000
   1 H :   -0.000000    1.000000
Sum of atomic charges         :   -0.0000000
Sum of atomic spin populations:    2.0000000

-----------------------------------------------------
MULLIKEN REDUCED ORBITAL CHARGES AND SPIN POPULATIONS
-----------------------------------------------------
CHARGE
  0 H s       :     1.000000  s :     1.000000
      pz      :     0.000000  p :     0.000000
      px      :     0.000000
      py      :     0.000000
      dz2     :     0.000000  d :     0.000000
      dxz     :     0.000000
      dyz     :     0.000000
      dx2y2   :     0.000000
      dxy     :     0.000000
      f0      :     0.000000  f :     0.000000
      f+1     :     0.000000
      f-1     :     0.000000
      f+2     :     0.000000
      f-2     :     0.000000
      f+3     :     0.000000
      f-3     :     0.000000
  1 H s       :     1.000000  s :     1.000000
      pz      :     0.000000  p :     0.000000
      px      :     0.000000
      py      :     0.000000
      dz2     :     0.000000  d :     0.000000
      dxz     :     0.000000
      dyz     :     0.000000
      dx2y2   :     0.000000
      dxy     :     0.000000
      f0      :     0.000000  f :     0.000000
      f+1     :     0.000000
      f-1     :     0.000000
      f+2     :     0.000000
      f-2     :     0.000000
      f+3     :     0.000000
      f-3     :     0.000000

SPIN
  0 H s       :     1.000000  s :     1.000000
      pz      :     0.000000  p :     0.000000
      px      :     0.000000
      py      :     0.000000
      dz2     :     0.000000  d :     0.000000
      dxz     :     0.000000
      dyz     :     0.000000
      dx2y2   :     0.000000
      dxy     :     0.000000
      f0      :     0.000000  f :     0.000000
      f+1     :     0.000000
      f-1     :     0.000000
      f+2     :     0.000000
      f-2     :     0.000000
      f+3     :     0.000000
      f-3     :     0.000000
  1 H s       :     1.000000  s :     1.000000
      pz      :     0.000000  p :     0.000000
      px      :     0.000000
      py      :     0.000000
      dz2     :     0.000000  d :     0.000000
      dxz     :     0.000000
      dyz     :     0.000000
      dx2y2   :     0.000000
      dxy     :     0.000000
      f0      :     0.000000  f :     0.000000
      f+1     :     0.000000
      f-1     :     0.000000
      f+2     :     0.000000
      f-2     :     0.000000
      f+3     :     0.000000
      f-3     :     0.000000

------------------------
MULLIKEN OVERLAP CHARGES
------------------------



                     *******************************
                     * LOEWDIN POPULATION ANALYSIS *
                     *******************************

-------------------------------------------
LOEWDIN ATOMIC CHARGES AND SPIN POPULATIONS
-------------------------------------------
   0 H :   -0.000000    1.000000
   1 H :   -0.000000    1.000000

----------------------------------------------------
LOEWDIN REDUCED ORBITAL CHARGES AND SPIN POPULATIONS
----------------------------------------------------
CHARGE
  0 H s       :     1.000000  s :     1.000000
      pz      :     0.000000  p :     0.000000
      px      :     0.000000
      py      :     0.000000
      dz2     :     0.000000  d :     0.000000
      dxz     :     0.000000
      dyz     :     0.000000
      dx2y2   :     0.000000
      dxy     :     0.000000
      f0      :     0.000000  f :     0.000000
      f+1     :     0.000000
      f-1     :     0.000000
      f+2     :     0.000000
      f-2     :     0.000000
      f+3     :     0.000000
      f-3     :     0.000000
  1 H s       :     1.000000  s :     1.000000
      pz      :     0.000000  p :     0.000000
      px      :     0.000000
      py      :     0.000000
      dz2     :     0.000000  d :     0.000000
      dxz     :     0.000000
      dyz     :     0.000000
      dx2y2   :     0.000000
      dxy     :     0.000000
      f0      :     0.000000  f :     0.000000
      f+1     :     0.000000
      f-1     :     0.000000
      f+2     :     0.000000
      f-2     :     0.000000
      f+3     :     0.000000
      f-3     :     0.000000

SPIN
  0 H s       :     1.000000  s :     1.000000
      pz      :     0.000000  p :     0.000000
      px      :     0.000000
      py      :     0.000000
      dz2     :     0.000000  d :     0.000000
      dxz     :     0.000000
      dyz     :     0.000000
      dx2y2   :     0.000000
      dxy     :     0.000000
      f0      :     0.000000  f :     0.000000
      f+1     :     0.000000
      f-1     :     0.000000
      f+2     :     0.000000
      f-2     :     0.000000
      f+3     :     0.000000
      f-3     :     0.000000
  1 H s       :     1.000000  s :     1.000000
      pz      :     0.000000  p :     0.000000
      px      :     0.000000
      py      :     0.000000
      dz2     :     0.000000  d :     0.000000
      dxz     :     0.000000
      dyz     :     0.000000
      dx2y2   :     0.000000
      dxy     :     0.000000
      f0      :     0.000000  f :     0.000000
      f+1     :     0.000000
      f-1     :     0.000000
      f+2     :     0.000000
      f-2     :     0.000000
      f+3     :     0.000000
      f-3     :     0.000000

---------------------------------
LOEWDIN BOND ORDERS (THRESH 0.050000)
---------------------------------


------------------------------------------
LOEWDIN REDUCED ORBITAL POPULATIONS PER MO
-------------------------------------------
THRESHOLD FOR PRINTING IS 0.1%
SPIN UP
                      0         1         2         3         4         5   
                  -0.31892  -0.31892   0.14735   0.14735   0.39712   0.39712
                   1.00000   1.00000   0.00000   0.00000   0.00000   0.00000
                  --------  --------  --------  --------  --------  --------
 0 H  s              50.0      50.0      50.0      50.0       0.0       0.0
 0 H  pz              0.0       0.0       0.0       0.0      45.3       4.7
 0 H  py              0.0       0.0       0.0       0.0       4.7      45.3
 1 H  s              50.0      50.0      50.0      50.0       0.0       0.0
 1 H  pz              0.0       0.0       0.0       0.0      45.3       4.7
 1 H  py              0.0       0.0       0.0       0.0       4.7      45.3

                      6         7         8         9        10        11   
                   0.39712   0.39712   0.39712   0.39712   0.98119   0.98119
                   0.00000   0.00000   0.00000   0.00000   0.00000   0.00000
                  --------  --------  --------  --------  --------  --------
 0 H  s               0.0       0.0       0.0       0.0      50.0      50.0
 0 H  pz             49.1       0.9       0.0       0.0       0.0       0.0
 0 H  px              0.0       0.0      50.0      50.0       0.0       0.0
 0 H  py              0.9      49.1       0.0       0.0       0.0       0.0
 1 H  s               0.0       0.0       0.0       0.0      50.0      50.0
 1 H  pz             49.1       0.9       0.0       0.0       0.0       0.0
 1 H  px              0.0       0.0      50.0      50.0       0.0       0.0
 1 H  py              0.9      49.1       0.0       0.0       0.0       0.0

                     12        13        14        15        16        17   
                   1.84890   1.84890   1.84890   1.84890   1.84890   1.84890
                   0.00000   0.00000   0.00000   0.00000   0.00000   0.00000
                  --------  --------  --------  --------  --------  --------
 0 H  dz2             0.0       0.0      63.3      11.7       0.0       0.0
 0 H  dxz             0.0       0.0       0.0       0.0       0.1      50.1
 0 H  dyz            53.0      47.0       0.0       0.0       0.0       0.0
 0 H  dx2y2           0.0       0.0      21.1       3.9       0.0       0.0
 0 H  dxy             0.0       0.0       0.0       0.0      49.8       0.1
 1 H  dz2             0.0       0.0      11.7      63.3       0.0       0.0
 1 H  dxz             0.0       0.0       0.0       0.0       0.1      49.7
 1 H  dyz            47.0      53.0       0.0       0.0       0.0       0.0
 1 H  dx2y2           0.0       0.0       3.9      21.1       0.0       0.0
 1 H  dxy             0.0       0.0       0.0       0.0      49.9       0.1

                     18        19        20        21        22        23   
                   1.84890   1.84890   1.84890   1.84890   2.10099   2.10099
                   0.00000   0.00000   0.00000   0.00000   0.00000   0.00000
                  --------  --------  --------  --------  --------  --------
 0 H  pz              0.0       0.0       0.0       0.0      49.1       0.9
 0 H  py              0.0       0.0       0.0       0.0       0.9      49.1
 0 H  dz2             0.0       0.0      12.5      12.5       0.0       0.0
 0 H  dxz            49.1       0.7       0.0       0.0       0.0       0.0
 0 H  dx2y2           0.0       0.0      37.5      37.5       0.0       0.0
 0 H  dxy             0.7      49.3       0.0       0.0       0.0       0.0
 1 H  pz              0.0       0.0       0.0       0.0      49.1       0.9
 1 H  py              0.0       0.0       0.0       0.0       0.9      49.1
 1 H  dz2             0.0       0.0      12.5      12.5       0.0       0.0
 1 H  dxz            49.5       0.7       0.0       0.0       0.0       0.0
 1 H  dx2y2           0.0       0.0      37.5      37.5       0.0       0.0
 1 H  dxy             0.7      49.3       0.0       0.0       0.0       0.0

                     24        25        26        27        28        29   
                   2.10099   2.10099   2.10099   2.10099   4.88454   4.88454
                   0.00000   0.00000   0.00000   0.00000   0.00000   0.00000
                  --------  --------  --------  --------  --------  --------
 0 H  s               0.0       0.0       0.0       0.0      50.0      50.0
 0 H  pz             49.4       0.6       0.0       0.0       0.0       0.0
 0 H  px              0.0       0.0      50.0      50.0       0.0       0.0
 0 H  py              0.6      49.4       0.0       0.0       0.0       0.0
 1 H  s               0.0       0.0       0.0       0.0      50.0      50.0
 1 H  pz             49.4       0.6       0.0       0.0       0.0       0.0
 1 H  px              0.0       0.0      50.0      50.0       0.0       0.0
 1 H  py              0.6      49.4       0.0       0.0       0.0       0.0

                     30        31        32        33        34        35   
                   5.74837   5.74837   5.74837   5.74837   5.74837   5.74837
                   0.00000   0.00000   0.00000   0.00000   0.00000   0.00000
                  --------  --------  --------  --------  --------  --------
 0 H  f0              0.3       5.9       2.5       1.8       0.0       0.0
 0 H  f+1             0.0       0.0       0.0       0.0      55.9       6.6
 0 H  f-1             5.3       2.3      24.1      57.8       0.0       0.0
 0 H  f+2             2.9      50.6      21.0      15.0       0.0       0.0
 0 H  f+3             0.0       0.0       0.0       0.0      33.5       4.0
 0 H  f-3             0.6       0.3       2.8       6.8       0.0       0.0
 1 H  f0              0.1       4.0       5.1       1.3       0.0       0.0
 1 H  f+1             0.0       0.0       0.0       0.0       6.6      55.9
 1 H  f-1            80.8       2.1       0.9       5.8       0.0       0.0
 1 H  f+2             0.5      34.5      43.5      10.9       0.0       0.0
 1 H  f+3             0.0       0.0       0.0       0.0       4.0      33.5
 1 H  f-3             9.4       0.2       0.1       0.7       0.0       0.0

                     36        37        38        39        40        41   
                   5.74837   5.74837   5.74837   5.74837   5.74837   5.74837
                   0.00000   0.00000   0.00000   0.00000   0.00000   0.00000
                  --------  --------  --------  --------  --------  --------
 0 H  f0             19.0      29.0      41.5       0.0       0.0       0.0
 0 H  f-1             3.6       0.0       1.5       5.4       0.0       0.0
 0 H  f+2             2.2       3.4       4.9       0.0       0.0       0.0
 0 H  f-2             0.0       0.0       0.0       0.0      50.7      49.3
 0 H  f-3            30.5       0.0      12.7      46.3       0.0       0.0
 1 H  f0              8.8      60.5      20.2       0.0       0.0       0.0
 1 H  f-1             3.6       0.0       1.8       5.0       0.0       0.0
 1 H  f+2             1.0       7.1       2.4       0.0       0.0       0.0
 1 H  f-2             0.0       0.0       0.0       0.0      49.3      50.7
 1 H  f-3            31.2       0.0      15.2      43.2       0.0       0.0

                     42        43        44        45        46        47   
                   5.74837   5.74837   7.35434   7.35434   7.35434   7.35434
                   0.00000   0.00000   0.00000   0.00000   0.00000   0.00000
                  --------  --------  --------  --------  --------  --------
 0 H  pz              0.0       0.0      49.9       0.0      50.1       0.0
 0 H  py              0.0       0.0       0.0      49.3       0.0      50.7
 0 H  f+1            18.8      18.7       0.0       0.0       0.0       0.0
 0 H  f+3            31.4      31.1       0.0       0.0       0.0       0.0
 1 H  pz              0.0       0.0      50.1       0.0      49.9       0.0
 1 H  py              0.0       0.0       0.0      50.7       0.0      49.3
 1 H  f+1            18.7      18.8       0.0       0.0       0.0       0.0
 1 H  f+3            31.1      31.4       0.0       0.0       0.0       0.0

                     48        49        50        51        52        53   
                   7.35434   7.35434   7.74171   7.74171   7.74171   7.74171
                   0.00000   0.00000   0.00000   0.00000   0.00000   0.00000
                  --------  --------  --------  --------  --------  --------
 0 H  px             48.8      51.2       0.0       0.0       0.0       0.0
 0 H  dxz             0.0       0.0       0.0       0.0      32.7      66.4
 0 H  dyz             0.0       0.0     100.0       0.0       0.0       0.0
 0 H  dxy             0.0       0.0       0.0       0.0      60.4      30.0
 1 H  px             51.2      48.8       0.0       0.0       0.0       0.0
 1 H  dxz             0.0       0.0       0.0       0.0       1.0       2.6
 1 H  dyz             0.0       0.0       0.0     100.0       0.0       0.0
 1 H  dxy             0.0       0.0       0.0       0.0       6.0       1.0

                     54        55        56        57        58        59   
                   7.74171   7.74171   7.74181   7.74181   7.74181   7.74181
                   0.00000   0.00000   0.00000   0.00000   0.00000   0.00000
                  --------  --------  --------  --------  --------  --------
 0 H  dz2             0.0       0.0      74.9       0.1      12.4      12.6
 0 H  dxz             0.6       0.4       0.0       0.0       0.0       0.0
 0 H  dx2y2           0.0       0.0      25.0       0.0      37.1      37.9
 0 H  dxy             3.1       6.5       0.0       0.0       0.0       0.0
 1 H  dz2             0.0       0.0       0.1      74.9      12.6      12.4
 1 H  dxz            96.3       0.1       0.0       0.0       0.0       0.0
 1 H  dx2y2           0.0       0.0       0.0      25.0      37.9      37.1
 1 H  dxy             0.0      93.0       0.0       0.0       0.0       0.0


SPIN DOWN
                      0         1         2         3         4         5   
                  -0.03533  -0.03533   0.26093   0.26093   0.52245   0.52245
                   0.00000   0.00000   0.00000   0.00000   0.00000   0.00000
                  --------  --------  --------  --------  --------  --------
 0 H  s              96.9       3.1      97.7       2.3       0.0       0.0
 0 H  px              0.0       0.0       0.0       0.0      58.2      41.8
 1 H  s               3.1      96.9       2.3      97.7       0.0       0.0
 1 H  px              0.0       0.0       0.0       0.0      41.8      58.2

                      6         7         8         9        10        11   
                   0.52245   0.52245   0.52245   0.52245   1.19086   1.19086
                   0.00000   0.00000   0.00000   0.00000   0.00000   0.00000
                  --------  --------  --------  --------  --------  --------
 0 H  s               0.0       0.0       0.0       0.0      50.8      49.2
 0 H  pz             68.4       1.4       0.1      30.1       0.0       0.0
 0 H  py              2.1      76.6       5.6      15.8       0.0       0.0
 1 H  s               0.0       0.0       0.0       0.0      49.2      50.8
 1 H  pz             28.7      19.7       1.7      49.9       0.0       0.0
 1 H  py              0.8       2.3      92.6       4.3       0.0       0.0

                     12        13        14        15        16        17   
                   2.00849   2.00849   2.00849   2.00849   2.00849   2.00849
                   0.00000   0.00000   0.00000   0.00000   0.00000   0.00000
                  --------  --------  --------  --------  --------  --------
 0 H  dz2            13.0      12.0       0.0       0.0       0.0       0.0
 0 H  dxz             0.0       0.0      74.6       2.1      22.0       1.3
 0 H  dx2y2          39.1      35.9       0.0       0.0       0.0       0.0
 0 H  dxy             0.0       0.0       0.5      72.9       0.0      26.6
 1 H  dz2            12.0      13.0       0.0       0.0       0.0       0.0
 1 H  dxz             0.0       0.0      24.8       1.9      64.4       8.8
 1 H  dx2y2          35.9      39.1       0.0       0.0       0.0       0.0
 1 H  dxy             0.0       0.0       0.0      23.2      13.6      63.2

                     18        19        20        21        22        23   
                   2.00849   2.00849   2.00849   2.00849   2.31783   2.31783
                   0.00000   0.00000   0.00000   0.00000   0.00000   0.00000
                  --------  --------  --------  --------  --------  --------
 0 H  px              0.0       0.0       0.0       0.0      49.6      50.4
 0 H  dz2             0.0       0.0      74.9       0.1       0.0       0.0
 0 H  dyz             1.8      98.2       0.0       0.0       0.0       0.0
 0 H  dx2y2           0.0       0.0      25.0       0.0       0.0       0.0
 1 H  px              0.0       0.0       0.0       0.0      50.4      49.6
 1 H  dz2             0.0       0.0       0.1      74.9       0.0       0.0
 1 H  dyz            98.2       1.8       0.0       0.0       0.0       0.0
 1 H  dx2y2           0.0       0.0       0.0      25.0       0.0       0.0

                     24        25        26        27        28        29   
                   2.31783   2.31783   2.31783   2.31783   5.30980   5.30980
                   0.00000   0.00000   0.00000   0.00000   0.00000   0.00000
                  --------  --------  --------  --------  --------  --------
 0 H  s               0.0       0.0       0.0       0.0      49.3      50.7
 0 H  pz             12.0       4.7      83.3       0.1       0.0       0.0
 0 H  py              1.6       1.1       0.2      97.1       0.0       0.0
 1 H  s               0.0       0.0       0.0       0.0      50.7      49.3
 1 H  pz             83.6       7.3       8.1       1.0       0.0       0.0
 1 H  py              2.9      86.9       8.4       1.8       0.0       0.0

                     30        31        32        33        34        35   
                   5.96430   5.96430   5.96430   5.96430   5.96430   5.96430
                   0.00000   0.00000   0.00000   0.00000   0.00000   0.00000
                  --------  --------  --------  --------  --------  --------
 0 H  f0              0.0       0.2       0.0       0.0       0.0       0.0
 0 H  f+1             0.0       0.0       0.0       0.0      62.4       0.1
 0 H  f-1            29.3       0.8      21.2       6.4       0.0       0.0
 0 H  f+2             0.0      95.6       1.4       2.7       0.0       0.0
 0 H  f+3             0.0       0.0       0.0       0.0      37.5       0.0
 0 H  f-3            21.5       0.6      15.6       4.7       0.0       0.0
 1 H  f0              0.0       0.0       0.1       0.2       0.0       0.0
 1 H  f+1             0.0       0.0       0.0       0.0       0.1      62.4
 1 H  f-1            28.3       1.3      19.8       8.2       0.0       0.0
 1 H  f+2             0.1       0.6      27.4      71.6       0.0       0.0
 1 H  f+3             0.0       0.0       0.0       0.0       0.0      37.5
 1 H  f-3            20.8       1.0      14.5       6.0       0.0       0.0

                     36        37        38        39        40        41   
                   5.96431   5.96431   5.96431   5.96431   5.96431   5.96431
                   0.00000   0.00000   0.00000   0.00000   0.00000   0.00000
                  --------  --------  --------  --------  --------  --------
 0 H  f0              0.0       0.0      15.6       1.0      78.6       4.5
 0 H  f+1            18.6      18.9       0.0       0.0       0.0       0.0
 0 H  f-1             0.0       0.0       2.3      25.1       1.0      13.8
 0 H  f+2             0.0       0.0       0.0       0.0       0.2       0.0
 0 H  f+3            30.9      31.6       0.0       0.0       0.0       0.0
 0 H  f-3             0.0       0.0       3.2      34.3       1.4      18.8
 1 H  f0              0.0       0.0      74.3       8.9      16.2       0.4
 1 H  f+1            18.9      18.6       0.0       0.0       0.0       0.0
 1 H  f-1             0.0       0.0       1.9      13.0       1.1      26.4
 1 H  f+2             0.0       0.0       0.2       0.0       0.0       0.0
 1 H  f+3            31.6      30.9       0.0       0.0       0.0       0.0
 1 H  f-3             0.0       0.0       2.5      17.7       1.4      36.0

                     42        43        44        45        46        47   
                   5.96431   5.96431   7.69488   7.69488   7.69488   7.69488
                   0.00000   0.00000   0.00000   0.00000   0.00000   0.00000
                  --------  --------  --------  --------  --------  --------
 0 H  pz              0.0       0.0       0.0       0.0      56.8      36.7
 0 H  px              0.0       0.0      46.2      53.8       0.0       0.0
 0 H  py              0.0       0.0       0.0       0.0       0.0       6.0
 0 H  f-2             2.7      97.3       0.0       0.0       0.0       0.0
 1 H  pz              0.0       0.0       0.0       0.0      43.2      47.9
 1 H  px              0.0       0.0      53.8      46.2       0.0       0.0
 1 H  py              0.0       0.0       0.0       0.0       0.0       9.4
 1 H  f-2            97.3       2.7       0.0       0.0       0.0       0.0

                     48        49        50        51        52        53   
                   7.69488   7.69488   8.03326   8.03326   8.03326   8.03326
                   0.00000   0.00000   0.00000   0.00000   0.00000   0.00000
                  --------  --------  --------  --------  --------  --------
 0 H  pz              5.6       0.9       0.0       0.0       0.0       0.0
 0 H  py             67.0      27.0       0.0       0.0       0.0       0.0
 0 H  dxz             0.0       0.0      37.8       0.3      55.7       6.2
 0 H  dxy             0.0       0.0       0.4      39.9       5.6      54.1
 1 H  pz              7.8       1.1       0.0       0.0       0.0       0.0
 1 H  py             19.7      71.0       0.0       0.0       0.0       0.0
 1 H  dxz             0.0       0.0      61.4       0.5      34.7       3.4
 1 H  dxy             0.0       0.0       0.4      59.3       4.0      36.4

                     54        55        56        57        58        59   
                   8.03326   8.03326   8.03345   8.03345   8.03345   8.03345
                   0.00000   0.00000   0.00000   0.00000   0.00000   0.00000
                  --------  --------  --------  --------  --------  --------
 0 H  dz2             0.0       0.0      12.8      12.2      62.5      12.5
 0 H  dyz             0.2      99.8       0.0       0.0       0.0       0.0
 0 H  dx2y2           0.0       0.0      38.5      36.5      20.8       4.2
 1 H  dz2             0.0       0.0      12.2      12.8      12.5      62.5
 1 H  dyz            99.8       0.2       0.0       0.0       0.0       0.0
 1 H  dx2y2           0.0       0.0      36.5      38.5       4.2      20.8



                      *****************************
                      * MAYER POPULATION ANALYSIS *
                      *****************************

  NA   - Mulliken gross atomic population
  ZA   - Total nuclear charge
  QA   - Mulliken gross atomic charge
  VA   - Mayer's total valence
  BVA  - Mayer's bonded valence
  FA   - Mayer's free valence

  ATOM       NA         ZA         QA         VA         BVA        FA
  0 H      1.0000     1.0000    -0.0000     1.0000     0.0000     1.0000
  1 H      1.0000     1.0000    -0.0000     1.0000     0.0000     1.0000

  Mayer bond orders larger than 0.100000


Local spin analysis not attempted because no beta electrons available

                ***UHF Natural Orbitals were saved in H2_0_1_UB3LYP_def2-qzvpp.sp.unso***

-------------------------
UHF NATURAL SPIN ORBITALS
-------------------------

Occupation Numbers:
N[  0]=   1.00000 N[  1]=   1.00000 N[  2]=   0.00000 N[  3]=   0.00000 N[  4]=   0.00000 
N[  5]=   0.00000 N[  6]=   0.00000 N[  7]=   0.00000 N[  8]=   0.00000 N[  9]=   0.00000 
N[ 10]=   0.00000 N[ 11]=   0.00000 N[ 12]=   0.00000 N[ 13]=   0.00000 N[ 14]=   0.00000 
N[ 15]=   0.00000 N[ 16]=   0.00000 N[ 17]=   0.00000 N[ 18]=   0.00000 N[ 19]=   0.00000 
N[ 20]=   0.00000 N[ 21]=   0.00000 N[ 22]=   0.00000 N[ 23]=   0.00000 N[ 24]=   0.00000 
N[ 25]=   0.00000 N[ 26]=   0.00000 N[ 27]=   0.00000 N[ 28]=   0.00000 N[ 29]=   0.00000 
N[ 30]=   0.00000 N[ 31]=  -0.00000 N[ 32]=  -0.00000 N[ 33]=  -0.00000 N[ 34]=  -0.00000 
N[ 35]=  -0.00000 N[ 36]=  -0.00000 N[ 37]=  -0.00000 N[ 38]=  -0.00000 N[ 39]=  -0.00000 
N[ 40]=  -0.00000 N[ 41]=  -0.00000 N[ 42]=  -0.00000 N[ 43]=  -0.00000 N[ 44]=  -0.00000 
N[ 45]=  -0.00000 N[ 46]=  -0.00000 N[ 47]=  -0.00000 N[ 48]=  -0.00000 N[ 49]=  -0.00000 
N[ 50]=  -0.00000 N[ 51]=  -0.00000 N[ 52]=  -0.00000 N[ 53]=  -0.00000 N[ 54]=  -0.00000 
N[ 55]=  -0.00000 N[ 56]=  -0.00000 N[ 57]=  -0.00000 N[ 58]=  -0.00000 N[ 59]=  -0.00000 


                ***UHF Natural Orbitals were saved in H2_0_1_UB3LYP_def2-qzvpp.sp.uno***

--------------------
UHF NATURAL ORBITALS
--------------------

Occupation Numbers:
N[  0]=   1.00000 N[  1]=   1.00000 N[  2]=   0.00000 N[  3]=   0.00000 N[  4]=   0.00000 
N[  5]=   0.00000 N[  6]=   0.00000 N[  7]=   0.00000 N[  8]=   0.00000 N[  9]=   0.00000 
N[ 10]=   0.00000 N[ 11]=   0.00000 N[ 12]=   0.00000 N[ 13]=   0.00000 N[ 14]=   0.00000 
N[ 15]=   0.00000 N[ 16]=   0.00000 N[ 17]=   0.00000 N[ 18]=   0.00000 N[ 19]=   0.00000 
N[ 20]=   0.00000 N[ 21]=   0.00000 N[ 22]=   0.00000 N[ 23]=   0.00000 N[ 24]=   0.00000 
N[ 25]=   0.00000 N[ 26]=   0.00000 N[ 27]=   0.00000 N[ 28]=   0.00000 N[ 29]=   0.00000 
N[ 30]=   0.00000 N[ 31]=  -0.00000 N[ 32]=  -0.00000 N[ 33]=  -0.00000 N[ 34]=  -0.00000 
N[ 35]=  -0.00000 N[ 36]=  -0.00000 N[ 37]=  -0.00000 N[ 38]=  -0.00000 N[ 39]=  -0.00000 
N[ 40]=  -0.00000 N[ 41]=  -0.00000 N[ 42]=  -0.00000 N[ 43]=  -0.00000 N[ 44]=  -0.00000 
N[ 45]=  -0.00000 N[ 46]=  -0.00000 N[ 47]=  -0.00000 N[ 48]=  -0.00000 N[ 49]=  -0.00000 
N[ 50]=  -0.00000 N[ 51]=  -0.00000 N[ 52]=  -0.00000 N[ 53]=  -0.00000 N[ 54]=  -0.00000 
N[ 55]=  -0.00000 N[ 56]=  -0.00000 N[ 57]=  -0.00000 N[ 58]=  -0.00000 N[ 59]=  -0.00000 

QR-MO GENERATION
 Dim     =   60
 Mult    =    3
 NEl     =    2
 N(DOMO) =    0
 N(SOMO) =    2
 N(VMO)  =   58


                ***Quasi-Restricted Orbitals were saved in H2_0_1_UB3LYP_def2-qzvpp.sp.qro***

Orbital Energies of Quasi-Restricted MO's
   0( 1) :    -0.152543 a.u.    -4.151 eV alpha=   -8.678 beta=    0.376
   1( 1) :    -0.152543 a.u.    -4.151 eV alpha=   -8.678 beta=    0.376
   2( 0) :     0.147345 a.u.     4.009 eV
   3( 0) :     0.147345 a.u.     4.009 eV
   4( 0) :     0.397121 a.u.    10.806 eV
   5( 0) :     0.397121 a.u.    10.806 eV
   6( 0) :     0.397121 a.u.    10.806 eV
   7( 0) :     0.397121 a.u.    10.806 eV
   8( 0) :     0.397121 a.u.    10.806 eV
   9( 0) :     0.397121 a.u.    10.806 eV
  10( 0) :     0.981191 a.u.    26.700 eV
  11( 0) :     0.981191 a.u.    26.700 eV
  12( 0) :     1.848895 a.u.    50.311 eV
  13( 0) :     1.848895 a.u.    50.311 eV
  14( 0) :     1.848895 a.u.    50.311 eV
  15( 0) :     1.848895 a.u.    50.311 eV
  16( 0) :     1.848895 a.u.    50.311 eV
  17( 0) :     1.848895 a.u.    50.311 eV
  18( 0) :     1.848895 a.u.    50.311 eV
  19( 0) :     1.848895 a.u.    50.311 eV
  20( 0) :     1.848895 a.u.    50.311 eV
  21( 0) :     1.848895 a.u.    50.311 eV
  22( 0) :     2.100984 a.u.    57.171 eV
  23( 0) :     2.100984 a.u.    57.171 eV
  24( 0) :     2.100984 a.u.    57.171 eV
  25( 0) :     2.100984 a.u.    57.171 eV
  26( 0) :     2.100984 a.u.    57.171 eV
  27( 0) :     2.100984 a.u.    57.171 eV
  28( 0) :     4.884538 a.u.   132.915 eV
  29( 0) :     4.884538 a.u.   132.915 eV
  30( 0) :     5.748368 a.u.   156.421 eV
  31( 0) :     5.748368 a.u.   156.421 eV
  32( 0) :     5.748368 a.u.   156.421 eV
  33( 0) :     5.748368 a.u.   156.421 eV
  34( 0) :     5.748368 a.u.   156.421 eV
  35( 0) :     5.748368 a.u.   156.421 eV
  36( 0) :     5.748369 a.u.   156.421 eV
  37( 0) :     5.748369 a.u.   156.421 eV
  38( 0) :     5.748369 a.u.   156.421 eV
  39( 0) :     5.748369 a.u.   156.421 eV
  40( 0) :     5.748369 a.u.   156.421 eV
  41( 0) :     5.748369 a.u.   156.421 eV
  42( 0) :     5.748369 a.u.   156.421 eV
  43( 0) :     5.748369 a.u.   156.421 eV
  44( 0) :     7.354340 a.u.   200.122 eV
  45( 0) :     7.354340 a.u.   200.122 eV
  46( 0) :     7.354340 a.u.   200.122 eV
  47( 0) :     7.354340 a.u.   200.122 eV
  48( 0) :     7.354340 a.u.   200.122 eV
  49( 0) :     7.354340 a.u.   200.122 eV
  50( 0) :     7.741711 a.u.   210.663 eV
  51( 0) :     7.741711 a.u.   210.663 eV
  52( 0) :     7.741711 a.u.   210.663 eV
  53( 0) :     7.741711 a.u.   210.663 eV
  54( 0) :     7.741711 a.u.   210.663 eV
  55( 0) :     7.741711 a.u.   210.663 eV
  56( 0) :     7.741809 a.u.   210.665 eV
  57( 0) :     7.741809 a.u.   210.665 eV
  58( 0) :     7.741809 a.u.   210.665 eV
  59( 0) :     7.741809 a.u.   210.665 eV
------------------------------------------------------------------------------
                           ORCA ORBITAL LOCALIZATION
------------------------------------------------------------------------------

Input orbitals are from                  ... H2_0_1_UB3LYP_def2-qzvpp.sp.uno
Output orbitals are to                   ... H2_0_1_UB3LYP_def2-qzvpp.sp.unoloc
Max. number of iterations                ... 64
Localizations seeded randomly            ... on
Convergence tolerance                    ... 1.000e-05
Using relative localization threshhold   ... 1.000e-05
Treshold for strong local MOs            ... 0.000e+00
Treshold for bond MOs                    ... 1.000e-01
Operator                                 ... 0
Orbital range for localization           ... 0 to 1
Localization criterion                   ... PIPEK-MEZEY
Entering Jacobi type localization:
Using Cholesky decomposition as initial guess.
Initial value of the localization sum :     2.000000
ITERATION   0 : L=    2.0000000000 DL=  2.26e-14 (MAX-T)=   0.000 
ITERATION   1 : L=    2.0000000000 DL=  0.00e+00 (MAX-T)=   0.000 
ITERATION   2 : L=    2.0000000000 DL=  0.00e+00 (MAX-T)=   0.000 
LOCALIZATION SUM CONVERGED


------------------------------------------------------------------------------- 
                    LOCALIZED MOLECULAR ORBITAL COMPOSITIONS                   
------------------------------------------------------------------------------- 

The Mulliken populations for each LMO on each atom are computed
The LMO`s will be ordered according to atom index and type
  (A) Strongly localized MO`s have populations of >=0.000 on one atom
  (B) Two center bond orbitals have populations of >=0.100 on two atoms
  (C) Other MO`s are considered to be `delocalized`

FOUND  -   2 strongly local MO`s
       -   0 two center bond MO`s
       -   0 significantly delocalized MO`s

Rather strongly localized orbitals:
MO   1:   1H  -   1.000000
MO   0:   0H  -   1.000000
Localized MO's were stored in: H2_0_1_UB3LYP_def2-qzvpp.sp.unoloc

----------------------------
 BROKEN SYMMETRY INFORMATION
----------------------------

first open orbital = 0
last open orbital  = 1
HOMO(alpha)        = 0
HOMO(beta)         = 0
The new occupation numbers
   0:    1.000    1.000
   1:    0.000    0.000
   2:    0.000    0.000
   3:    0.000    0.000
   4:    0.000    0.000
   5:    0.000    0.000
   6:    0.000    0.000
   7:    0.000    0.000
   8:    0.000    0.000
   9:    0.000    0.000
  10:    0.000    0.000
  11:    0.000    0.000
  12:    0.000    0.000
  13:    0.000    0.000
  14:    0.000    0.000
  15:    0.000    0.000
  16:    0.000    0.000
  17:    0.000    0.000
  18:    0.000    0.000
  19:    0.000    0.000
  20:    0.000    0.000
  21:    0.000    0.000
  22:    0.000    0.000
  23:    0.000    0.000
  24:    0.000    0.000
  25:    0.000    0.000
  26:    0.000    0.000
  27:    0.000    0.000
  28:    0.000    0.000
  29:    0.000    0.000
  30:    0.000    0.000
  31:    0.000    0.000
  32:    0.000    0.000
  33:    0.000    0.000
  34:    0.000    0.000
  35:    0.000    0.000
  36:    0.000    0.000
  37:    0.000    0.000
  38:    0.000    0.000
  39:    0.000    0.000
  40:    0.000    0.000
  41:    0.000    0.000
  42:    0.000    0.000
  43:    0.000    0.000
  44:    0.000    0.000
  45:    0.000    0.000
  46:    0.000    0.000
  47:    0.000    0.000
  48:    0.000    0.000
  49:    0.000    0.000
  50:    0.000    0.000
  51:    0.000    0.000
  52:    0.000    0.000
  53:    0.000    0.000
  54:    0.000    0.000
  55:    0.000    0.000
  56:    0.000    0.000
  57:    0.000    0.000
  58:    0.000    0.000
  59:    0.000    0.000

-------------------
DFT GRID GENERATION
-------------------

General Integration Accuracy     IntAcc      ...  4.340
Radial Grid Type                 RadialGrid  ... Gauss-Chebyshev
Angular Grid (max. acc.)         AngularGrid ... Lebedev-110
Angular grid pruning method      GridPruning ... 3 (G Style)
Weight generation scheme         WeightScheme... Becke
Basis function cutoff            BFCut       ...    1.0000e-11
Integration weight cutoff        WCut        ...    1.0000e-14
Grids for H and He will be reduced by one unit

# of grid points (after initial pruning)     ...   1588 (   0.0 sec)
# of grid points (after weights+screening)   ...   1588 (   0.0 sec)
nearest neighbour list constructed           ...    0.0 sec
Grid point re-assignment to atoms done       ...    0.0 sec
Grid point division into batches done        ...    0.0 sec
Reduced shell lists constructed in    0.0 sec

Total number of grid points                  ...     1588
Total number of batches                      ...       26
Average number of points per batch           ...       61
Average number of grid points per atom       ...      794
Average number of shells per batch           ...     9.63 (48.15%)
Average number of basis functions per batch  ...    28.89 (48.15%)
Average number of large shells per batch     ...     9.63 (100.00%)
Average number of large basis fcns per batch ...    28.89 (100.00%)
Maximum spatial batch extension              ...  17.62, 21.59, 21.59 au
Average spatial batch extension              ...   6.09,  8.92,  9.49 au

Time for grid setup =    0.005 sec

--------------
SCF ITERATIONS
--------------
               ***  Starting incremental Fock matrix formation  ***

                         ----------------------------
                         !        ITERATION     0   !
                         ----------------------------
   Total Energy        :      -0.998035556947 Eh
   Energy Change       :      -0.998035556947 Eh
   MAX-DP              :       0.000001423616
   RMS-DP              :       0.000000029305
   Actual Damping      :       0.7000
   Actual Level Shift  :       0.2500 Eh
   Int. Num. El.       :     1.99999940 (UP=    0.99999970 DN=    0.99999970)
   Exchange            :    -0.48385607
   Correlation         :    -0.00835242

                 **** Energy Check signals convergence ****

               *****************************************************
               *                     SUCCESS                       *
               *           SCF CONVERGED AFTER   1 CYCLES          *
               *****************************************************

Setting up the final grid:

General Integration Accuracy     IntAcc      ...  4.670
Radial Grid Type                 RadialGrid  ... Gauss-Chebyshev
Angular Grid (max. acc.)         AngularGrid ... Lebedev-302
Angular grid pruning method      GridPruning ... 3 (G Style)
Weight generation scheme         WeightScheme... Becke
Basis function cutoff            BFCut       ...    1.0000e-11
Integration weight cutoff        WCut        ...    1.0000e-14
Grids for H and He will be reduced by one unit

# of grid points (after initial pruning)     ...   6788 (   0.0 sec)
# of grid points (after weights+screening)   ...   6788 (   0.0 sec)
nearest neighbour list constructed           ...    0.0 sec
Grid point re-assignment to atoms done       ...    0.0 sec
Grid point division into batches done        ...    0.0 sec
Reduced shell lists constructed in    0.0 sec

Total number of grid points                  ...     6788
Total number of batches                      ...      108
Average number of points per batch           ...       62
Average number of grid points per atom       ...     3394
Average number of shells per batch           ...     9.14 (45.69%)
Average number of basis functions per batch  ...    26.97 (44.95%)
Average number of large shells per batch     ...     8.64 (94.58%)
Average number of large basis fcns per batch ...    25.19 (93.40%)
Maximum spatial batch extension              ...  15.43, 15.43, 15.43 au
Average spatial batch extension              ...   4.52,  4.60,  4.61 au

Final grid set up in    0.0 sec
Final integration                            ... done (   0.0 sec)
Change in XC energy                          ...     0.000000156
Integrated number of electrons               ...     1.999999400
Previous integrated no of electrons          ...     1.999999397

----------------
TOTAL SCF ENERGY
----------------

Total Energy       :           -0.99803540 Eh             -27.15792 eV

Components:
Nuclear Repulsion  :            0.02652169 Eh               0.72169 eV
Electronic Energy  :           -1.02455709 Eh             -27.87962 eV
One Electron Energy:           -1.05223047 Eh             -28.63265 eV
Two Electron Energy:            0.02767338 Eh               0.75303 eV

Virial components:
Potential Energy   :           -1.99216575 Eh             -54.20959 eV
Kinetic Energy     :            0.99413035 Eh              27.05166 eV
Virial Ratio       :            2.00392811


DFT components:
N(Alpha)           :        0.999999699805 electrons
N(Beta)            :        0.999999699805 electrons
N(Total)           :        1.999999399609 electrons
E(X)               :       -0.483855839270 Eh       
E(C)               :       -0.008352419547 Eh       
E(XC)              :       -0.492208258817 Eh       
DFET-embed. en.    :        0.000000000000 Eh       

---------------
SCF CONVERGENCE
---------------

  Last Energy change         ...   -3.6164e-12  Tolerance :   1.0000e-08
  Last MAX-Density change    ...    5.7381e-07  Tolerance :   1.0000e-07
  Last RMS-Density change    ...    1.1739e-08  Tolerance :   5.0000e-09
  Last DIIS Error            ...    1.0496e-06  Tolerance :   5.0000e-07

             **** THE GBW FILE WAS UPDATED (H2_0_1_UB3LYP_def2-qzvpp.sp.gbw) ****
             **** DENSITY FILE WAS UPDATED (H2_0_1_UB3LYP_def2-qzvpp.sp.scfp) ****
             **** ENERGY FILE WAS UPDATED (H2_0_1_UB3LYP_def2-qzvpp.sp.en.tmp) ****
----------------------
UHF SPIN CONTAMINATION
----------------------

Warning: in a DFT calculation there is little theoretical justification to 
         calculate <S**2> as in Hartree-Fock theory. We will do it anyways
         but you should keep in mind that the values have only limited relevance

Expectation value of <S**2>     :     1.000000
Ideal value S*(S+1) for S=0.0   :     0.000000
Deviation                       :     1.000000

             **** THE GBW FILE WAS UPDATED (H2_0_1_UB3LYP_def2-qzvpp.sp.gbw) ****
             **** DENSITY FILE WAS UPDATED (H2_0_1_UB3LYP_def2-qzvpp.sp.scfp) ****
----------------
ORBITAL ENERGIES
----------------
                 SPIN UP ORBITALS
  NO   OCC          E(Eh)            E(eV) 
   0   1.0000      -0.318920        -8.6782 
   1   0.0000      -0.035334        -0.9615 
   2   0.0000       0.147345         4.0095 
   3   0.0000       0.260931         7.1003 
   4   0.0000       0.397121        10.8062 
   5   0.0000       0.397121        10.8062 
   6   0.0000       0.397121        10.8062 
   7   0.0000       0.522447        14.2165 
   8   0.0000       0.522447        14.2165 
   9   0.0000       0.522447        14.2165 
  10   0.0000       0.981191        26.6996 
  11   0.0000       1.190854        32.4048 
  12   0.0000       1.848895        50.3110 
  13   0.0000       1.848895        50.3110 
  14   0.0000       1.848895        50.3110 
  15   0.0000       1.848895        50.3110 
  16   0.0000       1.848895        50.3110 
  17   0.0000       2.008486        54.6537 
  18   0.0000       2.008486        54.6537 
  19   0.0000       2.008486        54.6537 
  20   0.0000       2.008486        54.6537 
  21   0.0000       2.008486        54.6537 
  22   0.0000       2.100984        57.1707 
  23   0.0000       2.100984        57.1707 
  24   0.0000       2.100984        57.1707 
  25   0.0000       2.317823        63.0712 
  26   0.0000       2.317823        63.0712 
  27   0.0000       2.317823        63.0712 
  28   0.0000       4.884538       132.9150 
  29   0.0000       5.309793       144.4868 
  30   0.0000       5.748368       156.4210 
  31   0.0000       5.748368       156.4210 
  32   0.0000       5.748368       156.4210 
  33   0.0000       5.748369       156.4211 
  34   0.0000       5.748369       156.4211 
  35   0.0000       5.748369       156.4211 
  36   0.0000       5.748369       156.4211 
  37   0.0000       5.964300       162.2969 
  38   0.0000       5.964300       162.2969 
  39   0.0000       5.964300       162.2969 
  40   0.0000       5.964306       162.2970 
  41   0.0000       5.964306       162.2970 
  42   0.0000       5.964306       162.2970 
  43   0.0000       5.964306       162.2970 
  44   0.0000       7.354340       200.1218 
  45   0.0000       7.354340       200.1218 
  46   0.0000       7.354340       200.1218 
  47   0.0000       7.694881       209.3884 
  48   0.0000       7.694881       209.3884 
  49   0.0000       7.694881       209.3884 
  50   0.0000       7.741711       210.6627 
  51   0.0000       7.741711       210.6627 
  52   0.0000       7.741711       210.6627 
  53   0.0000       7.741809       210.6653 
  54   0.0000       7.741809       210.6653 
  55   0.0000       8.033255       218.5960 
  56   0.0000       8.033255       218.5960 
  57   0.0000       8.033255       218.5960 
  58   0.0000       8.033448       218.6012 
  59   0.0000       8.033448       218.6012 

                 SPIN DOWN ORBITALS
  NO   OCC          E(Eh)            E(eV) 
   0   1.0000      -0.318920        -8.6782 
   1   0.0000      -0.035334        -0.9615 
   2   0.0000       0.147345         4.0095 
   3   0.0000       0.260931         7.1003 
   4   0.0000       0.397121        10.8062 
   5   0.0000       0.397121        10.8062 
   6   0.0000       0.397121        10.8062 
   7   0.0000       0.522447        14.2165 
   8   0.0000       0.522447        14.2165 
   9   0.0000       0.522447        14.2165 
  10   0.0000       0.981191        26.6996 
  11   0.0000       1.190854        32.4048 
  12   0.0000       1.848895        50.3110 
  13   0.0000       1.848895        50.3110 
  14   0.0000       1.848895        50.3110 
  15   0.0000       1.848895        50.3110 
  16   0.0000       1.848895        50.3110 
  17   0.0000       2.008486        54.6537 
  18   0.0000       2.008486        54.6537 
  19   0.0000       2.008486        54.6537 
  20   0.0000       2.008486        54.6537 
  21   0.0000       2.008486        54.6537 
  22   0.0000       2.100984        57.1707 
  23   0.0000       2.100984        57.1707 
  24   0.0000       2.100984        57.1707 
  25   0.0000       2.317823        63.0712 
  26   0.0000       2.317823        63.0712 
  27   0.0000       2.317823        63.0712 
  28   0.0000       4.884538       132.9150 
  29   0.0000       5.309793       144.4868 
  30   0.0000       5.748368       156.4210 
  31   0.0000       5.748368       156.4210 
  32   0.0000       5.748368       156.4210 
  33   0.0000       5.748369       156.4211 
  34   0.0000       5.748369       156.4211 
  35   0.0000       5.748369       156.4211 
  36   0.0000       5.748369       156.4211 
  37   0.0000       5.964300       162.2969 
  38   0.0000       5.964300       162.2969 
  39   0.0000       5.964300       162.2969 
  40   0.0000       5.964306       162.2970 
  41   0.0000       5.964306       162.2970 
  42   0.0000       5.964306       162.2970 
  43   0.0000       5.964306       162.2970 
  44   0.0000       7.354340       200.1218 
  45   0.0000       7.354340       200.1218 
  46   0.0000       7.354340       200.1218 
  47   0.0000       7.694881       209.3884 
  48   0.0000       7.694881       209.3884 
  49   0.0000       7.694881       209.3884 
  50   0.0000       7.741711       210.6627 
  51   0.0000       7.741711       210.6627 
  52   0.0000       7.741711       210.6627 
  53   0.0000       7.741809       210.6653 
  54   0.0000       7.741809       210.6653 
  55   0.0000       8.033255       218.5960 
  56   0.0000       8.033255       218.5960 
  57   0.0000       8.033255       218.5960 
  58   0.0000       8.033448       218.6012 
  59   0.0000       8.033448       218.6012 

                    ********************************
                    * MULLIKEN POPULATION ANALYSIS *
                    ********************************

--------------------------------------------
MULLIKEN ATOMIC CHARGES AND SPIN POPULATIONS
--------------------------------------------
   0 H :    0.000000    1.000000
   1 H :    0.000000   -1.000000
Sum of atomic charges         :    0.0000000
Sum of atomic spin populations:   -0.0000000

-----------------------------------------------------
MULLIKEN REDUCED ORBITAL CHARGES AND SPIN POPULATIONS
-----------------------------------------------------
CHARGE
  0 H s       :     1.000000  s :     1.000000
      pz      :     0.000000  p :     0.000000
      px      :     0.000000
      py      :     0.000000
      dz2     :     0.000000  d :     0.000000
      dxz     :     0.000000
      dyz     :     0.000000
      dx2y2   :     0.000000
      dxy     :     0.000000
      f0      :     0.000000  f :     0.000000
      f+1     :     0.000000
      f-1     :     0.000000
      f+2     :     0.000000
      f-2     :     0.000000
      f+3     :     0.000000
      f-3     :     0.000000
  1 H s       :     1.000000  s :     1.000000
      pz      :     0.000000  p :     0.000000
      px      :     0.000000
      py      :     0.000000
      dz2     :     0.000000  d :     0.000000
      dxz     :     0.000000
      dyz     :     0.000000
      dx2y2   :     0.000000
      dxy     :     0.000000
      f0      :     0.000000  f :     0.000000
      f+1     :     0.000000
[...]
Average number of basis functions per batch  ...    52.41 (87.35%)
Average number of large shells per batch     ...    17.07 (95.26%)
Average number of large basis fcns per batch ...    49.90 (95.20%)
Maximum spatial batch extension              ...  13.36, 15.43, 15.43 au
Average spatial batch extension              ...   3.18,  3.81,  3.77 au

Final grid set up in    0.0 sec
Final integration                            ... done (   0.1 sec)
Change in XC energy                          ...     0.000101787
Integrated number of electrons               ...     2.000000509
Previous integrated no of electrons          ...     2.001841078
Total Energy       :           -1.15776657 Eh             -31.50443 eV
  Last Energy change         ...   -2.4712e-10  Tolerance :   1.0000e-08
  Last MAX-Density change    ...    1.5996e-07  Tolerance :   1.0000e-07
             **** THE GBW FILE WAS UPDATED (H2_0_1_UB3LYP_def2-qzvpp.sp.gbw) ****
             **** DENSITY FILE WAS UPDATED (H2_0_1_UB3LYP_def2-qzvpp.sp.scfp) ****
             **** ENERGY FILE WAS UPDATED (H2_0_1_UB3LYP_def2-qzvpp.sp.en.tmp) ****
----------------------
UHF SPIN CONTAMINATION
----------------------

Warning: in a DFT calculation there is little theoretical justification to 
         calculate <S**2> as in Hartree-Fock theory. We will do it anyways
         but you should keep in mind that the values have only limited relevance

Expectation value of <S**2>     :    -0.000000
Ideal value S*(S+1) for S=0.0   :     0.000000
Deviation                       :    -0.000000

             **** THE GBW FILE WAS UPDATED (H2_0_1_UB3LYP_def2-qzvpp.sp.gbw) ****
             **** DENSITY FILE WAS UPDATED (H2_0_1_UB3LYP_def2-qzvpp.sp.scfp) ****
Total SCF time: 0 days 0 hours 0 min 1 sec 

-------------------------   --------------------
FINAL SINGLE POINT ENERGY        -1.157766569380
-------------------------   --------------------

Storing actual gbw-file in H2_0_1_UB3LYP_def2-qzvpp.sp.019.gbw ... done

                            ***************************************
                            *     ORCA property calculations      *
                            ***************************************

                                    ---------------------
                                    Active property flags
                                    ---------------------
   (+) Dipole Moment


------------------------------------------------------------------------------
                       ORCA ELECTRIC PROPERTIES CALCULATION
------------------------------------------------------------------------------

Dipole Moment Calculation                       ... on
Quadrupole Moment Calculation                   ... off
Polarizability Calculation                      ... off
GBWName                                         ... H2_0_1_UB3LYP_def2-qzvpp.sp.gbw
Electron density file                           ... H2_0_1_UB3LYP_def2-qzvpp.sp.scfp
The origin for moment calculation is the CENTER OF MASS  = ( 0.574883,  0.000000  0.000000)

-------------
DIPOLE MOMENT
-------------
                                X             Y             Z
Electronic contribution:      0.00000      -0.00000       0.00000
Nuclear contribution   :      0.00000       0.00000       0.00000
                        -----------------------------------------
Total Dipole Moment    :      0.00000      -0.00000       0.00000
                        -----------------------------------------
Magnitude (a.u.)       :      0.00000
Magnitude (Debye)      :      0.00000



--------------------
Rotational spectrum 
--------------------
 
Rotational constants in cm-1:     0.000000    90.353569    90.353569 
Rotational constants in MHz :     0.000000 2708731.853415 2708731.853415 

 Dipole components along the rotational axes: 
x,y,z [a.u.] :     0.000000    -0.000000     0.000000 
x,y,z [Debye]:     0.000000    -0.000000     0.000000 

 

         *************************************************************
                                TRAJECTORY STEP  20
                RHH  :   0.50118723
         *************************************************************
---------------------------------
CARTESIAN COORDINATES (ANGSTROEM)
---------------------------------
  H      0.000000    0.000000    0.000000
  H      0.501187    0.000000    0.000000

----------------------------
CARTESIAN COORDINATES (A.U.)
----------------------------
  NO LB      ZA    FRAG     MASS         X           Y           Z
   0 H     1.0000    0     1.008    0.000000    0.000000    0.000000
   1 H     1.0000    0     1.008    0.947107    0.000000    0.000000

--------------------------------
INTERNAL COORDINATES (ANGSTROEM)
--------------------------------
 H      0   0   0     0.000000000000     0.00000000     0.00000000
 H      1   0   0     0.501187233627     0.00000000     0.00000000

---------------------------
INTERNAL COORDINATES (A.U.)
---------------------------
 H      0   0   0     0.000000000000     0.00000000     0.00000000
 H      1   0   0     0.947106613373     0.00000000     0.00000000


Diagonalization of the overlap matrix:
Smallest eigenvalue                        ... 5.708e-05
Time for diagonalization                   ...    0.002 sec
Threshold for overlap eigenvalues          ... 1.000e-08
Number of eigenvalues below threshold      ... 0
Time for construction of square roots      ...    0.002 sec
Total time needed                          ...    0.004 sec

-------------------
DFT GRID GENERATION
-------------------

General Integration Accuracy     IntAcc      ...  4.340
Radial Grid Type                 RadialGrid  ... Gauss-Chebyshev
Angular Grid (max. acc.)         AngularGrid ... Lebedev-110
Angular grid pruning method      GridPruning ... 3 (G Style)
Weight generation scheme         WeightScheme... Becke
Basis function cutoff            BFCut       ...    1.0000e-11
Integration weight cutoff        WCut        ...    1.0000e-14
Grids for H and He will be reduced by one unit

# of grid points (after initial pruning)     ...   1588 (   0.0 sec)
# of grid points (after weights+screening)   ...   1560 (   0.0 sec)
nearest neighbour list constructed           ...    0.0 sec
Grid point re-assignment to atoms done       ...    0.0 sec
Grid point division into batches done        ...    0.0 sec
Reduced shell lists constructed in    0.0 sec

Total number of grid points                  ...     1560
Total number of batches                      ...       26
Average number of points per batch           ...       60
Average number of grid points per atom       ...      780
Average number of shells per batch           ...    19.15 (95.74%)
Average number of basis functions per batch  ...    57.44 (95.74%)
Average number of large shells per batch     ...    18.78 (98.07%)
Average number of large basis fcns per batch ...    56.19 (97.81%)
Maximum spatial batch extension              ...  15.26, 21.59, 21.59 au
Average spatial batch extension              ...   4.46,  7.66,  7.77 au

Time for grid setup =    0.007 sec

--------------
SCF ITERATIONS
--------------
ITER       Energy         Delta-E        Max-DP      RMS-DP      [F,P]     Damp
               ***  Starting incremental Fock matrix formation  ***
  0     -1.1014260937   0.000000000000 0.00120891  0.00007255  0.0783876 0.7000
  1     -1.1024468124  -0.001020718682 0.00092075  0.00005935  0.0544969 0.7000
                               ***Turning on DIIS***
  2     -1.1031166418  -0.000669829443 0.00208656  0.00013532  0.0356102 0.0000
  3     -1.1044394508  -0.001322808998 0.00049826  0.00002481  0.0069058 0.0000
  4     -1.1044737043  -0.000034253430 0.00009908  0.00000481  0.0010302 0.0000
  5     -1.1044747879  -0.000001083592 0.00004191  0.00000243  0.0002296 0.0000
  6     -1.1044748508  -0.000000062925 0.00000397  0.00000015  0.0000164 0.0000
                 **** Energy Check signals convergence ****

               *****************************************************
               *                     SUCCESS                       *
               *           SCF CONVERGED AFTER   7 CYCLES          *
               *****************************************************

Setting up the final grid:

General Integration Accuracy     IntAcc      ...  4.670
Radial Grid Type                 RadialGrid  ... Gauss-Chebyshev
Angular Grid (max. acc.)         AngularGrid ... Lebedev-302
Angular grid pruning method      GridPruning ... 3 (G Style)
Weight generation scheme         WeightScheme... Becke
Basis function cutoff            BFCut       ...    1.0000e-11
Integration weight cutoff        WCut        ...    1.0000e-14
Grids for H and He will be reduced by one unit

# of grid points (after initial pruning)     ...   6788 (   0.0 sec)
# of grid points (after weights+screening)   ...   6754 (   0.0 sec)
nearest neighbour list constructed           ...    0.0 sec
Grid point re-assignment to atoms done       ...    0.0 sec
Grid point division into batches done        ...    0.0 sec
Reduced shell lists constructed in    0.0 sec

Total number of grid points                  ...     6754
Total number of batches                      ...      106
Average number of points per batch           ...       63
Average number of grid points per atom       ...     3377
Average number of shells per batch           ...    17.91 (89.53%)
Average number of basis functions per batch  ...    52.34 (87.23%)
Average number of large shells per batch     ...    17.07 (95.35%)
Average number of large basis fcns per batch ...    49.95 (95.45%)
Maximum spatial batch extension              ...  13.36, 15.43, 15.43 au
Average spatial batch extension              ...   3.21,  3.81,  3.72 au

Final grid set up in    0.0 sec
Final integration                            ... done (   0.1 sec)
Change in XC energy                          ...     0.000240096
Integrated number of electrons               ...     2.000000679
Previous integrated no of electrons          ...     2.002880019
Total Energy       :           -1.10423476 Eh             -30.04776 eV
  Last Energy change         ...   -1.7850e-10  Tolerance :   1.0000e-08
  Last MAX-Density change    ...    1.5224e-07  Tolerance :   1.0000e-07
             **** THE GBW FILE WAS UPDATED (H2_0_1_UB3LYP_def2-qzvpp.sp.gbw) ****
             **** DENSITY FILE WAS UPDATED (H2_0_1_UB3LYP_def2-qzvpp.sp.scfp) ****
             **** ENERGY FILE WAS UPDATED (H2_0_1_UB3LYP_def2-qzvpp.sp.en.tmp) ****
----------------------
UHF SPIN CONTAMINATION
----------------------

Warning: in a DFT calculation there is little theoretical justification to 
         calculate <S**2> as in Hartree-Fock theory. We will do it anyways
         but you should keep in mind that the values have only limited relevance

Expectation value of <S**2>     :    -0.000000
Ideal value S*(S+1) for S=0.0   :     0.000000
Deviation                       :    -0.000000

             **** THE GBW FILE WAS UPDATED (H2_0_1_UB3LYP_def2-qzvpp.sp.gbw) ****
             **** DENSITY FILE WAS UPDATED (H2_0_1_UB3LYP_def2-qzvpp.sp.scfp) ****
Total SCF time: 0 days 0 hours 0 min 1 sec 

-------------------------   --------------------
FINAL SINGLE POINT ENERGY        -1.104234755306
-------------------------   --------------------

Storing actual gbw-file in H2_0_1_UB3LYP_def2-qzvpp.sp.020.gbw ... done

                            ***************************************
                            *     ORCA property calculations      *
                            ***************************************

                                    ---------------------
                                    Active property flags
                                    ---------------------
   (+) Dipole Moment


------------------------------------------------------------------------------
                       ORCA ELECTRIC PROPERTIES CALCULATION
------------------------------------------------------------------------------

Dipole Moment Calculation                       ... on
Quadrupole Moment Calculation                   ... off
Polarizability Calculation                      ... off
GBWName                                         ... H2_0_1_UB3LYP_def2-qzvpp.sp.gbw
Electron density file                           ... H2_0_1_UB3LYP_def2-qzvpp.sp.scfp
The origin for moment calculation is the CENTER OF MASS  = ( 0.473553,  0.000000  0.000000)

-------------
DIPOLE MOMENT
-------------
                                X             Y             Z
Electronic contribution:      0.00000       0.00000      -0.00000
Nuclear contribution   :      0.00000       0.00000       0.00000
                        -----------------------------------------
Total Dipole Moment    :      0.00000       0.00000      -0.00000
                        -----------------------------------------
Magnitude (a.u.)       :      0.00000
Magnitude (Debye)      :      0.00000



--------------------
Rotational spectrum 
--------------------
 
Rotational constants in cm-1:     0.000000   133.157724   133.157724 
Rotational constants in MHz :     0.000000 3991968.149099 3991968.149099 

 Dipole components along the rotational axes: 
x,y,z [a.u.] :     0.000000     0.000000    -0.000000 
x,y,z [Debye]:     0.000000     0.000000    -0.000000 

 
                              **** TRAJECTORY DONE ***

                         SUMMARY OF THE CALCULATED SURFACE

------------------
TRAJECTORY RESULTS
------------------

Column   1: RHH

The Calculated Surface using the 'Actual Energy'
  19.95262315  -0.99803540
  16.43574799  -0.99803538
  13.53876180  -0.99803510
  11.15240214  -0.99803109
   9.18666532  -0.99803220
   7.56741181  -0.99803765
   6.23357002  -0.99803732
   5.13483291  -0.99804453
   4.22976062  -0.99810800
   3.48421754  -0.99845269
   2.87008485  -0.99980536
   2.36419999  -1.00430297
   1.94748304  -1.01713853
   1.60421716  -1.04585810
   1.32145577  -1.09003043
   1.08853427  -1.13159417
   0.89666781  -1.16219960
   0.73861998  -1.17386710
   0.60842987  -1.15776657
   0.50118723  -1.10423476

                        *******************************
                        *   FIT OF THE ACT-ENERGY PES *
                        *******************************
-------------------------------
POTENTIAL ENERGY SURFACE =   0
-------------------------------

Minimum found after 15 iterations
Equilibrium distance and its energy from the interpolated PES:
  Re      =   0.72655 Angstroem  (  1.37299 Bohr)
  E(Re)   =    -1.173949 Eh 
  dE/dR   = 2.484e-10 (-1.151e-01 CHEB)
  d2E/dR2 =    0.344360 (   0.853366 CHEB) (  -0.013710 NUM)
  d3E/dR3 =   -4.101056 (  -3.634694 CHEB)

Spectroscopic constants:
  we =    4266.1 cm**-1 (based on SPLINE)
  we =    6715.6 cm**-1 (based on CHEB)
  we =      -nan cm**-1 (based on NUM)

Performing Morse fit ...
Morse-Fit Results:
 Te(adiabatic)   =    -600.6 cm**-1         = -0.074 eV
 d2E/dR**2 (Morse)=      0.450531672 
 d3E/dR**3 (Morse)=     -1.513489022 
 d4E/dR**4 (Morse)=      3.954474264 
 E0               =     -1.176685095 Eh  RMS=2.37e-06
 Re               =   0.73556 Angstroem      =  1.39001 Bohr RMS=1.21e-05)
 De(Morse)        =   4.88856 eV             =  39428.9 cm**-1 RMS=2.65e-06
 D0(Morse)        =   4.58606 eV
 beta             =   1.11978 au          RMS=1.94e-05
 we               =   4879.6 cm**-1
 wexe             =    150.9 cm**-1
 Displacement   =    0.0090 Angstroem      =  0.01702 Bohr

Minimum found after 22 iterations
Equilibrium distance and its energy from the interpolated PES:
  Re      =   7.24194 Angstroem  ( 13.68529 Bohr)
  E(Re)   =    -0.998038 Eh 
  dE/dR   = -2.683e-12 (-2.203e-02 CHEB)
  d2E/dR2 =    0.000001 (   0.085992 CHEB) (   0.000361 NUM)
  d3E/dR3 =    0.000001 (  -0.341406 CHEB)

Spectroscopic constants:
  we =       6.9 cm**-1 (based on SPLINE)
  we =    2131.8 cm**-1 (based on CHEB)
  we =     138.2 cm**-1 (based on NUM)

Performing Morse fit ...
Morse-Fit Results:
 Te(adiabatic)   =   39802.7 cm**-1         =  4.935 eV
 d2E/dR**2 (Morse)=     -0.000094365 
 d3E/dR**3 (Morse)=      0.000056132 
 d4E/dR**4 (Morse)=     -0.000025969 
 E0               =     -0.992593866 Eh  RMS=1.88e-05
 Re               =   7.36774 Angstroem      = 13.92301 Bohr RMS=1.99e-05)
 De(Morse)        =  -0.03266 eV             =   -263.4 cm**-1 RMS=4.61e-06
 D0(Morse)        =      -nan eV
 beta             =   0.19828 au          RMS=1.39e-04
 we               =     -nan cm**-1
 wexe             =      4.7 cm**-1
 Displacement   =    6.6412 Angstroem      = 12.55003 Bohr

The Calculated Surface using the SCF energy
  19.95262315  -0.99803540
  16.43574799  -0.99803538
  13.53876180  -0.99803510
  11.15240214  -0.99803109
   9.18666532  -0.99803220
   7.56741181  -0.99803765
   6.23357002  -0.99803732
   5.13483291  -0.99804453
   4.22976062  -0.99810800
   3.48421754  -0.99845269
   2.87008485  -0.99980536
   2.36419999  -1.00430297
   1.94748304  -1.01713853
   1.60421716  -1.04585810
   1.32145577  -1.09003043
   1.08853427  -1.13159417
   0.89666781  -1.16219960
   0.73861998  -1.17386710
   0.60842987  -1.15776657
   0.50118723  -1.10423476

                        *******************************
                        *       FIT OF THE SCF PES    *
                        *******************************
-------------------------------
POTENTIAL ENERGY SURFACE =   0
-------------------------------

Minimum found after 15 iterations
Equilibrium distance and its energy from the interpolated PES:
  Re      =   0.72655 Angstroem  (  1.37299 Bohr)
  E(Re)   =    -1.173949 Eh 
  dE/dR   = 2.484e-10 (-1.151e-01 CHEB)
  d2E/dR2 =    0.344360 (   0.853366 CHEB) (  -0.013710 NUM)
  d3E/dR3 =   -4.101056 (  -3.634694 CHEB)

Spectroscopic constants:
  we =    4266.1 cm**-1 (based on SPLINE)
  we =    6715.6 cm**-1 (based on CHEB)
  we =      -nan cm**-1 (based on NUM)

Performing Morse fit ...
Morse-Fit Results:
 Te(adiabatic)   =    -600.6 cm**-1         = -0.074 eV
 d2E/dR**2 (Morse)=      0.450531672 
 d3E/dR**3 (Morse)=     -1.513489022 
 d4E/dR**4 (Morse)=      3.954474264 
 E0               =     -1.176685095 Eh  RMS=2.37e-06
 Re               =   0.73556 Angstroem      =  1.39001 Bohr RMS=1.21e-05)
 De(Morse)        =   4.88856 eV             =  39428.9 cm**-1 RMS=2.65e-06
 D0(Morse)        =   4.58606 eV
 beta             =   1.11978 au          RMS=1.94e-05
 we               =   4879.6 cm**-1
 wexe             =    150.9 cm**-1
 Displacement   =    0.0090 Angstroem      =  0.01702 Bohr

Minimum found after 22 iterations
Equilibrium distance and its energy from the interpolated PES:
  Re      =   7.24194 Angstroem  ( 13.68529 Bohr)
  E(Re)   =    -0.998038 Eh 
  dE/dR   = -2.683e-12 (-2.203e-02 CHEB)
  d2E/dR2 =    0.000001 (   0.085992 CHEB) (   0.000361 NUM)
  d3E/dR3 =    0.000001 (  -0.341406 CHEB)

Spectroscopic constants:
  we =       6.9 cm**-1 (based on SPLINE)
  we =    2131.8 cm**-1 (based on CHEB)
  we =     138.2 cm**-1 (based on NUM)

Performing Morse fit ...
Morse-Fit Results:
 Te(adiabatic)   =   39802.7 cm**-1         =  4.935 eV
 d2E/dR**2 (Morse)=     -0.000094365 
 d3E/dR**3 (Morse)=      0.000056132 
 d4E/dR**4 (Morse)=     -0.000025969 
 E0               =     -0.992593866 Eh  RMS=1.88e-05
 Re               =   7.36774 Angstroem      = 13.92301 Bohr RMS=1.99e-05)
 De(Morse)        =  -0.03266 eV             =   -263.4 cm**-1 RMS=4.61e-06
 D0(Morse)        =      -nan eV
 beta             =   0.19828 au          RMS=1.39e-04
 we               =     -nan cm**-1
 wexe             =      4.7 cm**-1
 Displacement   =    6.6412 Angstroem      = 12.55003 Bohr


Timings for individual modules:

Sum of individual times         ...       36.767 sec (=   0.613 min)
GTO integral calculation        ...        4.985 sec (=   0.083 min)  13.6 %
SCF iterations                  ...       31.782 sec (=   0.530 min)  86.4 %
                             ****ORCA TERMINATED NORMALLY****
TOTAL RUN TIME: 0 days 0 hours 0 minutes 39 seconds 204 msec
