
                                 *****************
                                 * O   R   C   A *
                                 *****************

           --- An Ab Initio, DFT and Semiempirical electronic structure package ---

                  #######################################################
                  #                        -***-                        #
                  #          Department of theory and spectroscopy      #
                  #               Directorship: Frank Neese             #
                  #        Max Planck Institute fuer Kohlenforschung    #
                  #                Kaiser Wilhelm Platz 1               #
                  #                 D-45470 Muelheim/Ruhr               #
                  #                      Germany                        #
                  #                                                     #
                  #                  All rights reserved                #
                  #                        -***-                        #
                  #######################################################


                         Program Version 4.2.0 -  RELEASE  -


 With contributions from (in alphabetic order):
   Daniel Aravena         : Magnetic Suceptibility
   Michael Atanasov       : Ab Initio Ligand Field Theory (pilot matlab implementation)
   Alexander A. Auer      : GIAO ZORA, VPT2
   Ute Becker             : Parallelization
   Giovanni Bistoni       : ED, misc. LED, open-shell LED, HFLED
   Martin Brehm           : Molecular dynamics
   Dmytro Bykov           : SCF Hessian
   Vijay G. Chilkuri      : MRCI spin determinant printing, contributions to CSF-ICE
   Dipayan Datta          : RHF DLPNO-CCSD density
   Achintya Kumar Dutta   : EOM-CC, STEOM-CC
   Dmitry Ganyushin       : Spin-Orbit,Spin-Spin,Magnetic field MRCI
   Miquel Garcia          : C-PCM Hessian, Gaussian charge scheme
   Yang Guo               : DLPNO-NEVPT2, CIM, IAO-localization
   Andreas Hansen         : Spin unrestricted coupled pair/coupled cluster methods
   Benjamin Helmich-Paris : CASSCF linear response (MC-RPA)
   Lee Huntington         : MR-EOM, pCC
   Robert Izsak           : Overlap fitted RIJCOSX, COSX-SCS-MP3, EOM
   Christian Kollmar      : KDIIS, OOCD, Brueckner-CCSD(T), CCSD density
   Simone Kossmann        : Meta GGA functionals, TD-DFT gradient, OOMP2, MP2 Hessian
   Martin Krupicka        : AUTO-CI
   Lucas Lang             : DCDCAS
   Dagmar Lenk            : GEPOL surface, SMD
   Dimitrios Liakos       : Extrapolation schemes; Compound Job, initial MDCI parallelization
   Dimitrios Manganas     : Further ROCIS development; embedding schemes
   Dimitrios Pantazis     : SARC Basis sets
   Taras Petrenko         : DFT Hessian,TD-DFT gradient, ASA, ECA, R-Raman, ABS, FL, XAS/XES, NRVS
   Peter Pinski           : DLPNO-MP2, DLPNO-MP2 Gradient
   Christoph Reimann      : Effective Core Potentials
   Marius Retegan         : Local ZFS, SOC
   Christoph Riplinger    : Optimizer, TS searches, QM/MM, DLPNO-CCSD(T), (RO)-DLPNO pert. Triples
   Tobias Risthaus        : Range-separated hybrids, TD-DFT gradient, RPA, STAB
   Michael Roemelt        : Original ROCIS implementation
   Masaaki Saitow         : Open-shell DLPNO-CCSD energy and density
   Barbara Sandhoefer     : DKH picture change effects
   Avijit Sen             : IP-ROCIS
   Kantharuban Sivalingam : CASSCF convergence, NEVPT2, FIC-MRCI
   Bernardo de Souza      : ESD, SOC TD-DFT
   Georgi Stoychev        : AutoAux, RI-MP2 NMR
   Willem Van den Heuvel  : Paramagnetic NMR
   Boris Wezisla          : Elementary symmetry handling
   Frank Wennmohs         : Technical directorship


 We gratefully acknowledge several colleagues who have allowed us to
 interface, adapt or use parts of their codes:
   Stefan Grimme, W. Hujo, H. Kruse,             : VdW corrections, initial TS optimization,
                  C. Bannwarth                     DFT functionals, gCP, sTDA/sTD-DF
   Ed Valeev, F. Pavosevic, A. Kumar             : LibInt (2-el integral package), F12 methods
   Garnet Chan, S. Sharma, J. Yang, R. Olivares  : DMRG
   Ulf Ekstrom                                   : XCFun DFT Library
   Mihaly Kallay                                 : mrcc  (arbitrary order and MRCC methods)
   Andreas Klamt, Michael Diedenhofen            : otool_cosmo (COSMO solvation model)
   Jiri Pittner, Ondrej Demel                    : Mk-CCSD
   Frank Weinhold                                : gennbo (NPA and NBO analysis)
   Christopher J. Cramer and Donald G. Truhlar   : smd solvation model
   Lars Goerigk                                  : TD-DFT with DH, B97 family of functionals
   V. Asgeirsson, H. Jonsson                     : NEB implementation
   FAccTs GmbH                                   : IRC, NEB, NEB-TS, Multilevel, MM, QM/MM, CI optimization
   S Lehtola, MJT Oliveira, MAL Marques          : LibXC Library


 Your calculation uses the libint2 library for the computation of 2-el integrals
 For citations please refer to: http://libint.valeyev.net

 Your ORCA version has been built with support for libXC version: 4.2.3
 For citations please refer to: https://tddft.org/programs/libxc/

 This ORCA versions uses:
   CBLAS   interface :  Fast vector & matrix operations
   LAPACKE interface :  Fast linear algebra routines
   SCALAPACK package :  Parallel linear algebra routines


----- Orbital basis set information -----
Your calculation utilizes the basis: def2-QZVPP
   F. Weigend and R. Ahlrichs, Phys. Chem. Chem. Phys. 7, 3297 (2005).

================================================================================
                                        WARNINGS
                       Please study these warnings very carefully!
================================================================================


INFO   : the flag for use of LIBINT has been found!

================================================================================
                                       INPUT FILE
================================================================================
NAME = H2_0_1_RB3LYP_def2-qzvpp.sp.inp
|  1> !rks b3lyp def2-qzvpp tightscf
|  2> !normalprint
|  3> 
|  4> %paras
|  5>   rHH [19.952623149688797 16.43574799372698 13.538761800225439 11.152402139117903 9.1866653175426 7.567411809920191 6.233570019315557 5.134832907437553 4.229760619613384 3.4842175435383975 2.870084854071569 2.3641999865500756 1.9474830399087562 1.6042171611153242 1.32145576997553 1.088534267260644 0.8966678097917788 0.7386199822079362 0.6084298690766428 0.5011872336272722]
|  6> end
|  7> 
|  8> %scf
|  9>   maxiter 500
| 10> end
| 11> 
| 12> *int 0 1
| 13> H 0 0 0 0 0 0
| 14> H 1 0 0 {rHH} 0 0
| 15> *
| 16> 
| 17>                          ****END OF INPUT****
================================================================================

                       ******************************
                       * Parameter Scan Calculation *
                       ******************************

Trajectory settings:
    -> SCF surface will be mapped

There are 1 parameter(s) to be scanned
           RHH: user defined at 20 points
There will be   20 energy evaluations


         *************************************************************
                                TRAJECTORY STEP   1
                RHH  :  19.95262315
         *************************************************************
---------------------------------
CARTESIAN COORDINATES (ANGSTROEM)
---------------------------------
  H      0.000000    0.000000    0.000000
  H     19.952623    0.000000    0.000000

----------------------------
CARTESIAN COORDINATES (A.U.)
----------------------------
  NO LB      ZA    FRAG     MASS         X           Y           Z
   0 H     1.0000    0     1.008    0.000000    0.000000    0.000000
   1 H     1.0000    0     1.008   37.704993    0.000000    0.000000

--------------------------------
INTERNAL COORDINATES (ANGSTROEM)
--------------------------------
 H      0   0   0     0.000000000000     0.00000000     0.00000000
 H      1   0   0    19.952623149689     0.00000000     0.00000000

---------------------------
INTERNAL COORDINATES (A.U.)
---------------------------
 H      0   0   0     0.000000000000     0.00000000     0.00000000
 H      1   0   0    37.704993406249     0.00000000     0.00000000

---------------------
BASIS SET INFORMATION
---------------------
There are 1 groups of distinct atoms

 Group   1 Type H   : 7s3p2d1f contracted to 4s3p2d1f pattern {4111/111/11/1}

Atom   0H    basis set group =>   1
Atom   1H    basis set group =>   1

Checking for AutoStart:
The File: H2_0_1_RB3LYP_def2-qzvpp.sp.gbw exists
Trying to determine its content:
     ... Fine, the file contains calculation information
     ... Fine, the calculation information was read
     ... Fine, the file contains a basis set
     ... Fine, the basis set was read
     ... Fine, the file contains a geometry
     ... Fine, the geometry was read
     ... Fine, the file contains a set of orbitals
     ... Fine, the orbitals can be read
     => possible old guess file was deleted
     => GBW file was renamed to GES file
     => GES file is set as startup file
     => Guess is set to MORead
     ... now leaving AutoStart

------------------------------------------------------------------------------
                           ORCA GTO INTEGRAL CALCULATION
------------------------------------------------------------------------------

                         BASIS SET STATISTICS AND STARTUP INFO

 # of primitive gaussian shells          ...   26
 # of primitive gaussian functions       ...   66
 # of contracted shells                  ...   20
 # of contracted basis functions         ...   60
 Highest angular momentum                ...    3
 Maximum contraction depth               ...    4
 Integral package used                   ... LIBINT
 Integral threshhold            Thresh   ...  2.500e-11
 Primitive cut-off              TCut     ...  2.500e-12


------------------------------ INTEGRAL EVALUATION ----------------------------


 * One electron integrals 
 Pre-screening matrix                    ... done
 Shell pair data                         ... done (   0.000 sec)

-------------------------------------------------------------------------------
                                 ORCA SCF
-------------------------------------------------------------------------------

------------
SCF SETTINGS
------------
Hamiltonian:
 Density Functional     Method          .... DFT(GTOs)
 Exchange Functional    Exchange        .... B88
   X-Alpha parameter    XAlpha          ....  0.666667
   Becke's b parameter  XBeta           ....  0.004200
 Correlation Functional Correlation     .... LYP
 LDA part of GGA corr.  LDAOpt          .... VWN-5
 Gradients option       PostSCFGGA      .... off
 Hybrid DFT is turned on
   Fraction HF Exchange ScalHFX         ....  0.200000
   Scaling of DF-GGA-X  ScalDFX         ....  0.720000
   Scaling of DF-GGA-C  ScalDFC         ....  0.810000
   Scaling of DF-LDA-C  ScalLDAC        ....  1.000000
   Perturbative correction              ....  0.000000
   Density functional embedding theory  .... OFF
   NL short-range parameter             ....  4.800000


General Settings:
 Integral files         IntName         .... H2_0_1_RB3LYP_def2-qzvpp.sp
 Hartree-Fock type      HFTyp           .... RHF
 Total Charge           Charge          ....    0
 Multiplicity           Mult            ....    1
 Number of Electrons    NEL             ....    2
 Basis Dimension        Dim             ....   60
 Nuclear Repulsion      ENuc            ....      0.0265216861 Eh

Convergence Acceleration:
 DIIS                   CNVDIIS         .... on
   Start iteration      DIISMaxIt       ....    12
   Startup error        DIISStart       ....  0.200000
   # of expansion vecs  DIISMaxEq       ....     5
   Bias factor          DIISBfac        ....   1.050
   Max. coefficient     DIISMaxC        ....  10.000
 Newton-Raphson         CNVNR           .... off
 SOSCF                  CNVSOSCF        .... on
   Start iteration      SOSCFMaxIt      ....   150
   Startup grad/error   SOSCFStart      ....  0.003300
 Level Shifting         CNVShift        .... on
   Level shift para.    LevelShift      ....    0.2500
   Turn off err/grad.   ShiftErr        ....    0.0010
 Zerner damping         CNVZerner       .... off
 Static damping         CNVDamp         .... on
   Fraction old density DampFac         ....    0.7000
   Max. Damping (<1)    DampMax         ....    0.9800
   Min. Damping (>=0)   DampMin         ....    0.0000
   Turn off err/grad.   DampErr         ....    0.1000
 Fernandez-Rico         CNVRico         .... off

SCF Procedure:
 Maximum # iterations   MaxIter         ....   500
 SCF integral mode      SCFMode         .... Direct
   Integral package                     .... LIBINT
 Reset frequency        DirectResetFreq ....    20
 Integral Threshold     Thresh          ....  2.500e-11 Eh
 Primitive CutOff       TCut            ....  2.500e-12 Eh

Convergence Tolerance:
 Convergence Check Mode ConvCheckMode   .... Total+1el-Energy
 Convergence forced     ConvForced      .... 0
 Energy Change          TolE            ....  1.000e-08 Eh
 1-El. energy change                    ....  1.000e-05 Eh
 Orbital Gradient       TolG            ....  1.000e-05
 Orbital Rotation angle TolX            ....  1.000e-05
 DIIS Error             TolErr          ....  5.000e-07


Diagonalization of the overlap matrix:
Smallest eigenvalue                        ... 3.391e-02
Time for diagonalization                   ...    0.001 sec
Threshold for overlap eigenvalues          ... 1.000e-08
Number of eigenvalues below threshold      ... 0
Time for construction of square roots      ...    0.003 sec
Total time needed                          ...    0.004 sec

---------------------
INITIAL GUESS: MOREAD
---------------------
Guess MOs are being read from file: H2_0_1_RB3LYP_def2-qzvpp.sp.ges
Input geometry compatible with but different from current geometry
Input basis set matches current basis set (good)
MOs were renormalized
MOs were reorthogonalized (Cholesky)
                      ------------------
                      INITIAL GUESS DONE (   0.0 sec)
                      ------------------
-------------------
DFT GRID GENERATION
-------------------

General Integration Accuracy     IntAcc      ...  4.340
Radial Grid Type                 RadialGrid  ... Gauss-Chebyshev
Angular Grid (max. acc.)         AngularGrid ... Lebedev-110
Angular grid pruning method      GridPruning ... 3 (G Style)
Weight generation scheme         WeightScheme... Becke
Basis function cutoff            BFCut       ...    1.0000e-11
Integration weight cutoff        WCut        ...    1.0000e-14
Grids for H and He will be reduced by one unit

# of grid points (after initial pruning)     ...   1588 (   0.0 sec)
# of grid points (after weights+screening)   ...   1588 (   0.0 sec)
nearest neighbour list constructed           ...    0.0 sec
Grid point re-assignment to atoms done       ...    0.0 sec
Grid point division into batches done        ...    0.0 sec
Reduced shell lists constructed in    0.0 sec

Total number of grid points                  ...     1588
Total number of batches                      ...       26
Average number of points per batch           ...       61
Average number of grid points per atom       ...      794
Average number of shells per batch           ...     9.63 (48.15%)
Average number of basis functions per batch  ...    28.89 (48.15%)
Average number of large shells per batch     ...     9.63 (100.00%)
Average number of large basis fcns per batch ...    28.89 (100.00%)
Maximum spatial batch extension              ...  17.62, 21.59, 21.59 au
Average spatial batch extension              ...   6.09,  8.92,  9.49 au

Time for grid setup =    0.006 sec

--------------
SCF ITERATIONS
--------------
               ***  Starting incremental Fock matrix formation  ***

                         ----------------------------
                         !        ITERATION     0   !
                         ----------------------------
   Total Energy        :      -0.734786078986 Eh
   Energy Change       :      -0.734786078986 Eh
   MAX-DP              :       0.025422477576
   RMS-DP              :       0.001659696649
   Actual Damping      :       0.7000
   Actual Level Shift  :       0.2500 Eh
   Int. Num. El.       :     1.99999985 (UP=    0.99999993 DN=    0.99999993)
   Exchange            :    -0.53123570
   Correlation         :    -0.04007225


                         ----------------------------
                         !        ITERATION     1   !
                         ----------------------------
   Total Energy        :      -0.783524633967 Eh
   Energy Change       :      -0.048738554981 Eh
   MAX-DP              :       0.030379762922
   RMS-DP              :       0.001643623592
   Actual Damping      :       0.7000
   Actual Level Shift  :       0.2500 Eh
   Int. Num. El.       :     1.99999971 (UP=    0.99999985 DN=    0.99999985)
   Exchange            :    -0.48764191
   Correlation         :    -0.03919976

                               ***Turning on DIIS***

                         ----------------------------
                         !        ITERATION     2   !
                         ----------------------------
   Total Energy        :      -0.818152426920 Eh
   Energy Change       :      -0.034627792953 Eh
   MAX-DP              :       0.027898695086
   RMS-DP              :       0.001320992397
   Actual Damping      :       0.7000
   Actual Level Shift  :       0.2500 Eh
   Int. Num. El.       :     1.99999950 (UP=    0.99999975 DN=    0.99999975)
   Exchange            :    -0.44970508
   Correlation         :    -0.03832888
   DIIS-Error          :       0.160423415085


                         ----------------------------
                         !        ITERATION     3   !
                         ----------------------------
   Total Energy        :      -0.841343251331 Eh
   Energy Change       :      -0.023190824411 Eh
   MAX-DP              :       0.017869466271
   RMS-DP              :       0.000858474658
   Actual Damping      :       0.7000
   Actual Level Shift  :       0.2500 Eh
   Int. Num. El.       :     1.99999932 (UP=    0.99999966 DN=    0.99999966)
   Exchange            :    -0.42270796
   Correlation         :    -0.03768512
   DIIS-Error          :       0.108136606741
   DIIS coefficients:
     -1.41175   2.41175


                         ----------------------------
                         !        ITERATION     4   !
                         ----------------------------
   Total Energy        :      -0.857010282633 Eh
   Energy Change       :      -0.015667031302 Eh
   MAX-DP              :       0.035563979661
   RMS-DP              :       0.001806191043
   Actual Damping      :       0.0000
   Actual Level Shift  :       0.2500 Eh
   Int. Num. El.       :     1.99999921 (UP=    0.99999960 DN=    0.99999960)
   Exchange            :    -0.40605938
   Correlation         :    -0.03730353
   DIIS-Error          :       0.074450201106
   DIIS coefficients:
     -0.57402  -0.49715   2.07117

                      *** Initiating the SOSCF procedure ***
                           *** Shutting down DIIS ***
                      *** Re-Reading the Fockian *** 
                      *** Removing any level shift *** 

                         ----------------------------
                         !        ITERATION     5   !
                         ----------------------------
   Total Energy        :      -0.892239463185 Eh
   Energy Change       :      -0.035229180552 Eh
   MAX-DP              :       0.003351722571
   RMS-DP              :       0.000134301871
   Orbital gradient    :       0.001704720325
   Orbital Rotation    :       0.001704720325
   Actual Damping      :       0.0000
   Int. Num. El.       :     1.99999898 (UP=    0.99999949 DN=    0.99999949)
   Exchange            :    -0.37194003
   Correlation         :    -0.03658538

               *** Restarting incremental Fock matrix formation ***

                         ----------------------------
                         !        ITERATION     6   !
                         ----------------------------
   Total Energy        :      -0.892252370756 Eh
   Energy Change       :      -0.000012907571 Eh
   MAX-DP              :       0.001997583721
   RMS-DP              :       0.000086759040
   Orbital gradient    :       0.000569694709
   Orbital Rotation    :       0.001430835020
   Actual Damping      :       0.0000
   Int. Num. El.       :     1.99999900 (UP=    0.99999950 DN=    0.99999950)
   Exchange            :    -0.37283148
   Correlation         :    -0.03662166


                         ----------------------------
                         !        ITERATION     7   !
                         ----------------------------
   Total Energy        :      -0.892253922994 Eh
   Energy Change       :      -0.000001552237 Eh
   MAX-DP              :       0.000072410035
   RMS-DP              :       0.000003416319
   Orbital gradient    :       0.000085315644
   Orbital Rotation    :       0.000099211209
   Actual Damping      :       0.0000
   Int. Num. El.       :     1.99999901 (UP=    0.99999950 DN=    0.99999950)
   Exchange            :    -0.37328919
   Correlation         :    -0.03664060

                  ***Gradient check signals convergence***
              ***Rediagonalizing the Fockian in SOSCF/NRSCF***

               *****************************************************
               *                     SUCCESS                       *
               *           SCF CONVERGED AFTER   8 CYCLES          *
               *****************************************************

Setting up the final grid:

General Integration Accuracy     IntAcc      ...  4.670
Radial Grid Type                 RadialGrid  ... Gauss-Chebyshev
Angular Grid (max. acc.)         AngularGrid ... Lebedev-302
Angular grid pruning method      GridPruning ... 3 (G Style)
Weight generation scheme         WeightScheme... Becke
Basis function cutoff            BFCut       ...    1.0000e-11
Integration weight cutoff        WCut        ...    1.0000e-14
Grids for H and He will be reduced by one unit

# of grid points (after initial pruning)     ...   6788 (   0.0 sec)
# of grid points (after weights+screening)   ...   6788 (   0.0 sec)
nearest neighbour list constructed           ...    0.0 sec
Grid point re-assignment to atoms done       ...    0.0 sec
Grid point division into batches done        ...    0.0 sec
Reduced shell lists constructed in    0.0 sec

Total number of grid points                  ...     6788
Total number of batches                      ...      108
Average number of points per batch           ...       62
Average number of grid points per atom       ...     3394
Average number of shells per batch           ...     9.14 (45.69%)
Average number of basis functions per batch  ...    26.97 (44.95%)
Average number of large shells per batch     ...     8.64 (94.58%)
Average number of large basis fcns per batch ...    25.19 (93.40%)
Maximum spatial batch extension              ...  15.43, 15.43, 15.43 au
Average spatial batch extension              ...   4.52,  4.60,  4.61 au

Final grid set up in    0.0 sec
Final integration                            ... done (   0.0 sec)
Change in XC energy                          ...     0.000000016
Integrated number of electrons               ...     1.999999009
Previous integrated no of electrons          ...     1.999999007

----------------
TOTAL SCF ENERGY
----------------

Total Energy       :           -0.89225393 Eh             -24.27946 eV

Components:
Nuclear Repulsion  :            0.02652169 Eh               0.72169 eV
Electronic Energy  :           -0.91877561 Eh             -25.00116 eV
One Electron Energy:           -1.04551554 Eh             -28.44992 eV
Two Electron Energy:            0.12673992 Eh               3.44877 eV

Virial components:
Potential Energy   :           -1.75940761 Eh             -47.87592 eV
Kinetic Energy     :            0.86715369 Eh              23.59645 eV
Virial Ratio       :            2.02894555


DFT components:
N(Alpha)           :        0.999999504559 electrons
N(Beta)            :        0.999999504559 electrons
N(Total)           :        1.999999009119 electrons
E(X)               :       -0.373233218379 Eh       
E(C)               :       -0.036639158474 Eh       
E(XC)              :       -0.409872376853 Eh       
DFET-embed. en.    :        0.000000000000 Eh       

---------------
SCF CONVERGENCE
---------------

  Last Energy change         ...   -2.0927e-08  Tolerance :   1.0000e-08
  Last MAX-Density change    ...    3.0293e-06  Tolerance :   1.0000e-07
  Last RMS-Density change    ...    1.1497e-07  Tolerance :   5.0000e-09
  Last Orbital Gradient      ...    1.8639e-06  Tolerance :   1.0000e-05
  Last Orbital Rotation      ...    1.4864e-06  Tolerance :   1.0000e-05

             **** THE GBW FILE WAS UPDATED (H2_0_1_RB3LYP_def2-qzvpp.sp.gbw) ****
             **** DENSITY FILE WAS UPDATED (H2_0_1_RB3LYP_def2-qzvpp.sp.scfp) ****
             **** ENERGY FILE WAS UPDATED (H2_0_1_RB3LYP_def2-qzvpp.sp.en.tmp) ****
             **** THE GBW FILE WAS UPDATED (H2_0_1_RB3LYP_def2-qzvpp.sp.gbw) ****
             **** DENSITY FILE WAS UPDATED (H2_0_1_RB3LYP_def2-qzvpp.sp.scfp) ****
----------------
ORBITAL ENERGIES
----------------

  NO   OCC          E(Eh)            E(eV) 
   0   2.0000      -0.245836        -6.6895 
   1   0.0000      -0.240531        -6.5452 
   2   0.0000       0.152008         4.1364 
   3   0.0000       0.152008         4.1364 
   4   0.0000       0.407834        11.0977 
   5   0.0000       0.407836        11.0978 
   6   0.0000       0.407836        11.0978 
   7   0.0000       0.407839        11.0979 
   8   0.0000       0.407839        11.0979 
   9   0.0000       0.407841        11.0979 
  10   0.0000       1.001334        27.2477 
  11   0.0000       1.001334        27.2477 
  12   0.0000       1.863033        50.6957 
  13   0.0000       1.863033        50.6957 
  14   0.0000       1.863033        50.6957 
  15   0.0000       1.863033        50.6957 
  16   0.0000       1.863033        50.6957 
  17   0.0000       1.863033        50.6957 
  18   0.0000       1.863033        50.6957 
  19   0.0000       1.863033        50.6957 
  20   0.0000       1.863033        50.6957 
  21   0.0000       1.863033        50.6957 
  22   0.0000       2.123099        57.7725 
  23   0.0000       2.123099        57.7725 
  24   0.0000       2.123099        57.7725 
  25   0.0000       2.123099        57.7725 
  26   0.0000       2.123099        57.7725 
  27   0.0000       2.123099        57.7725 
  28   0.0000       4.921774       133.9283 
  29   0.0000       4.921774       133.9283 
  30   0.0000       5.768265       156.9625 
  31   0.0000       5.768265       156.9625 
  32   0.0000       5.768265       156.9625 
  33   0.0000       5.768265       156.9625 
  34   0.0000       5.768265       156.9625 
  35   0.0000       5.768265       156.9625 
  36   0.0000       5.768265       156.9625 
  37   0.0000       5.768265       156.9625 
  38   0.0000       5.768266       156.9625 
  39   0.0000       5.768266       156.9625 
  40   0.0000       5.768266       156.9625 
  41   0.0000       5.768266       156.9625 
  42   0.0000       5.768266       156.9625 
  43   0.0000       5.768266       156.9625 
  44   0.0000       7.386017       200.9838 
  45   0.0000       7.386017       200.9838 
  46   0.0000       7.386017       200.9838 
  47   0.0000       7.386017       200.9838 
  48   0.0000       7.386017       200.9838 
  49   0.0000       7.386017       200.9838 
  50   0.0000       7.768957       211.4041 
  51   0.0000       7.768957       211.4041 
  52   0.0000       7.768957       211.4041 
  53   0.0000       7.768957       211.4041 
  54   0.0000       7.768957       211.4041 
  55   0.0000       7.768957       211.4041 
  56   0.0000       7.769024       211.4059 
  57   0.0000       7.769024       211.4059 
  58   0.0000       7.769024       211.4059 
  59   0.0000       7.769024       211.4059 

                    ********************************
                    * MULLIKEN POPULATION ANALYSIS *
                    ********************************

-----------------------
MULLIKEN ATOMIC CHARGES
-----------------------
   0 H :    0.000000
   1 H :   -0.000000
Sum of atomic charges:    0.0000000

--------------------------------
MULLIKEN REDUCED ORBITAL CHARGES
--------------------------------
  0 H s       :     1.000000  s :     1.000000
      pz      :     0.000000  p :     0.000000
      px      :     0.000000
      py      :     0.000000
      dz2     :     0.000000  d :     0.000000
      dxz     :     0.000000
      dyz     :     0.000000
      dx2y2   :     0.000000
      dxy     :     0.000000
      f0      :     0.000000  f :     0.000000
      f+1     :     0.000000
      f-1     :     0.000000
      f+2     :     0.000000
      f-2     :     0.000000
      f+3     :     0.000000
      f-3     :     0.000000
  1 H s       :     1.000000  s :     1.000000
      pz      :     0.000000  p :     0.000000
      px      :     0.000000
      py      :     0.000000
      dz2     :     0.000000  d :     0.000000
      dxz     :     0.000000
      dyz     :     0.000000
      dx2y2   :     0.000000
      dxy     :     0.000000
      f0      :     0.000000  f :     0.000000
      f+1     :     0.000000
      f-1     :     0.000000
      f+2     :     0.000000
      f-2     :     0.000000
      f+3     :     0.000000
      f-3     :     0.000000

------------------------
MULLIKEN OVERLAP CHARGES
------------------------



                     *******************************
                     * LOEWDIN POPULATION ANALYSIS *
                     *******************************

----------------------
LOEWDIN ATOMIC CHARGES
----------------------
   0 H :    0.000000
   1 H :   -0.000000

-------------------------------
LOEWDIN REDUCED ORBITAL CHARGES
-------------------------------
  0 H s       :     1.000000  s :     1.000000
      pz      :     0.000000  p :     0.000000
      px      :     0.000000
      py      :     0.000000
      dz2     :     0.000000  d :     0.000000
      dxz     :     0.000000
      dyz     :     0.000000
      dx2y2   :     0.000000
      dxy     :     0.000000
      f0      :     0.000000  f :     0.000000
      f+1     :     0.000000
      f-1     :     0.000000
      f+2     :     0.000000
      f-2     :     0.000000
      f+3     :     0.000000
      f-3     :     0.000000
  1 H s       :     1.000000  s :     1.000000
      pz      :     0.000000  p :     0.000000
      px      :     0.000000
      py      :     0.000000
      dz2     :     0.000000  d :     0.000000
      dxz     :     0.000000
      dyz     :     0.000000
      dx2y2   :     0.000000
      dxy     :     0.000000
      f0      :     0.000000  f :     0.000000
      f+1     :     0.000000
      f-1     :     0.000000
      f+2     :     0.000000
      f-2     :     0.000000
      f+3     :     0.000000
      f-3     :     0.000000

---------------------------------
LOEWDIN BOND ORDERS (THRESH 0.050000)
---------------------------------
B(  0-H ,  1-H ) :   1.0000 

------------------------------------------
LOEWDIN REDUCED ORBITAL POPULATIONS PER MO
-------------------------------------------
THRESHOLD FOR PRINTING IS 0.1%
                      0         1         2         3         4         5   
                  -0.24584  -0.24053   0.15201   0.15201   0.40783   0.40784
                   2.00000   0.00000   0.00000   0.00000   0.00000   0.00000
                  --------  --------  --------  --------  --------  --------
 0 H  s              50.0      50.0       0.0     100.0       0.0       0.0
 0 H  pz              0.0       0.0       0.0       0.0       0.0      49.7
 0 H  px              0.0       0.0       0.0       0.0      50.0       0.0
 0 H  py              0.0       0.0       0.0       0.0       0.0       0.3
 1 H  s              50.0      50.0     100.0       0.0       0.0       0.0
 1 H  pz              0.0       0.0       0.0       0.0       0.0      49.7
 1 H  px              0.0       0.0       0.0       0.0      50.0       0.0
 1 H  py              0.0       0.0       0.0       0.0       0.0       0.3

                      6         7         8         9        10        11   
                   0.40784   0.40784   0.40784   0.40784   1.00133   1.00133
                   0.00000   0.00000   0.00000   0.00000   0.00000   0.00000
                  --------  --------  --------  --------  --------  --------
 0 H  s               0.0       0.0       0.0       0.0       0.0     100.0
 0 H  pz              0.3      50.0       0.0       0.0       0.0       0.0
 0 H  px              0.0       0.0       0.0      50.0       0.0       0.0
 0 H  py             49.7       0.0      50.0       0.0       0.0       0.0
 1 H  s               0.0       0.0       0.0       0.0     100.0       0.0
 1 H  pz              0.3      50.0       0.0       0.0       0.0       0.0
 1 H  px              0.0       0.0       0.0      50.0       0.0       0.0
 1 H  py             49.7       0.0      50.0       0.0       0.0       0.0

                     12        13        14        15        16        17   
                   1.86303   1.86303   1.86303   1.86303   1.86303   1.86303
                   0.00000   0.00000   0.00000   0.00000   0.00000   0.00000
                  --------  --------  --------  --------  --------  --------
 0 H  dz2            12.4      12.6       0.0       0.0       0.0       0.0
 0 H  dxz             0.0       0.0      32.5      16.8       0.0      50.7
 0 H  dx2y2          37.2      37.8       0.0       0.0       0.0       0.0
 0 H  dxy             0.0       0.0      16.8      32.5      50.7       0.0
 1 H  dz2            12.6      12.4       0.0       0.0       0.0       0.0
 1 H  dxz             0.0       0.0      33.4      17.3       0.0      49.3
 1 H  dx2y2          37.8      37.2       0.0       0.0       0.0       0.0
 1 H  dxy             0.0       0.0      17.3      33.4      49.3       0.0

                     18        19        20        21        22        23   
                   1.86303   1.86303   1.86303   1.86303   2.12310   2.12310
                   0.00000   0.00000   0.00000   0.00000   0.00000   0.00000
                  --------  --------  --------  --------  --------  --------
 0 H  px              0.0       0.0       0.0       0.0      49.1      50.9
 0 H  dz2             0.0      35.3       0.0      39.7       0.0       0.0
 0 H  dyz            47.0       0.0      53.0       0.0       0.0       0.0
 0 H  dx2y2           0.0      11.8       0.0      13.2       0.0       0.0
 1 H  px              0.0       0.0       0.0       0.0      50.9      49.1
 1 H  dz2             0.0      39.7       0.0      35.3       0.0       0.0
 1 H  dyz            53.0       0.0      47.0       0.0       0.0       0.0
 1 H  dx2y2           0.0      13.2       0.0      11.8       0.0       0.0

                     24        25        26        27        28        29   
                   2.12310   2.12310   2.12310   2.12310   4.92177   4.92177
                   0.00000   0.00000   0.00000   0.00000   0.00000   0.00000
                  --------  --------  --------  --------  --------  --------
 0 H  s               0.0       0.0       0.0       0.0       0.0     100.0
 0 H  pz             46.6       1.6       0.0      51.8       0.0       0.0
 0 H  py              1.6      46.6      51.8       0.0       0.0       0.0
 1 H  s               0.0       0.0       0.0       0.0     100.0       0.0
 1 H  pz             50.2       1.7       0.0      48.1       0.0       0.0
 1 H  py              1.7      50.2      48.1       0.0       0.0       0.0

                     30        31        32        33        34        35   
                   5.76827   5.76827   5.76827   5.76827   5.76827   5.76827
                   0.00000   0.00000   0.00000   0.00000   0.00000   0.00000
                  --------  --------  --------  --------  --------  --------
 0 H  f0              0.0       0.0       0.0       4.9       0.0       0.0
 0 H  f+1             0.0       0.0       0.0       0.0       0.0      62.5
 0 H  f-1             0.0       0.0      40.3       0.0       0.0       0.0
 0 H  f+2             0.0       0.1       0.0      95.0       0.0       0.0
 0 H  f+3             0.0       0.0       0.0       0.0       0.0      37.5
 0 H  f-3             0.0       0.0      59.6       0.0       0.0       0.0
 1 H  f0              0.0       4.9       0.0       0.0       0.0       0.0
 1 H  f+1             0.0       0.0       0.0       0.0      62.5       0.0
 1 H  f-1            40.3       0.0       0.0       0.0       0.0       0.0
 1 H  f+2             0.0      95.0       0.0       0.1       0.0       0.0
 1 H  f+3             0.0       0.0       0.0       0.0      37.5       0.0
 1 H  f-3            59.6       0.0       0.0       0.0       0.0       0.0

                     36        37        38        39        40        41   
                   5.76827   5.76827   5.76827   5.76827   5.76827   5.76827
                   0.00000   0.00000   0.00000   0.00000   0.00000   0.00000
                  --------  --------  --------  --------  --------  --------
 0 H  f+1             0.1      37.4       0.0       0.0       0.0       0.0
 0 H  f-2             0.0       0.0       0.0     100.0       0.0       0.0
 0 H  f+3             0.1      62.4       0.0       0.0       0.0       0.0
 1 H  f0              0.0       0.0       0.0       0.0      80.7      14.3
 1 H  f+1            37.4       0.1       0.0       0.0       0.0       0.0
 1 H  f-1             0.0       0.0       0.0       0.0       9.0      50.6
 1 H  f+2             0.0       0.0       0.0       0.0       4.2       0.7
 1 H  f-2             0.0       0.0     100.0       0.0       0.0       0.0
 1 H  f+3            62.4       0.1       0.0       0.0       0.0       0.0
 1 H  f-3             0.0       0.0       0.0       0.0       6.1      34.3

                     42        43        44        45        46        47   
                   5.76827   5.76827   7.38602   7.38602   7.38602   7.38602
                   0.00000   0.00000   0.00000   0.00000   0.00000   0.00000
                  --------  --------  --------  --------  --------  --------
 0 H  pz              0.0       0.0       0.0       0.8      48.7       0.0
 0 H  px              0.0       0.0      49.7       0.0       0.0      50.3
 0 H  py              0.0       0.0       0.0      48.7       0.8       0.0
 0 H  f0             51.7      43.4       0.0       0.0       0.0       0.0
 0 H  f-1            27.2      32.4       0.0       0.0       0.0       0.0
 0 H  f+2             2.7       2.2       0.0       0.0       0.0       0.0
 0 H  f-3            18.4      21.9       0.0       0.0       0.0       0.0
 1 H  pz              0.0       0.0       0.0       0.8      49.8       0.0
 1 H  px              0.0       0.0      50.3       0.0       0.0      49.7
 1 H  py              0.0       0.0       0.0      49.8       0.8       0.0

                     48        49        50        51        52        53   
                   7.38602   7.38602   7.76896   7.76896   7.76896   7.76896
                   0.00000   0.00000   0.00000   0.00000   0.00000   0.00000
                  --------  --------  --------  --------  --------  --------
 0 H  pz              0.0      50.6       0.0       0.0       0.0       0.0
 0 H  py             50.6       0.0       0.0       0.0       0.0       0.0
 0 H  dxz             0.0       0.0      26.2       0.0       0.0      73.8
 0 H  dxy             0.0       0.0       0.0      26.2      73.8       0.0
 1 H  pz              0.0      49.4       0.0       0.0       0.0       0.0
 1 H  py             49.4       0.0       0.0       0.0       0.0       0.0
 1 H  dxz             0.0       0.0      73.8       0.0       0.0      26.2
 1 H  dxy             0.0       0.0       0.0      73.8      26.2       0.0

                     54        55        56        57        58        59   
                   7.76896   7.76896   7.76902   7.76902   7.76902   7.76902
                   0.00000   0.00000   0.00000   0.00000   0.00000   0.00000
                  --------  --------  --------  --------  --------  --------
 0 H  dz2             0.0       0.0       8.3      16.7       3.3      71.7
 0 H  dyz             4.3      95.7       0.0       0.0       0.0       0.0
 0 H  dx2y2           0.0       0.0      24.8      50.2       1.1      23.9
 1 H  dz2             0.0       0.0      16.7       8.3      71.7       3.3
 1 H  dyz            95.7       4.3       0.0       0.0       0.0       0.0
 1 H  dx2y2           0.0       0.0      50.2      24.8      23.9       1.1



                      *****************************
                      * MAYER POPULATION ANALYSIS *
                      *****************************

  NA   - Mulliken gross atomic population
  ZA   - Total nuclear charge
  QA   - Mulliken gross atomic charge
  VA   - Mayer's total valence
  BVA  - Mayer's bonded valence
  FA   - Mayer's free valence

  ATOM       NA         ZA         QA         VA         BVA        FA
  0 H      1.0000     1.0000     0.0000     1.0000     1.0000     0.0000
  1 H      1.0000     1.0000    -0.0000     1.0000     1.0000     0.0000

  Mayer bond orders larger than 0.100000
B(  0-H ,  1-H ) :   1.0000 

-------
TIMINGS
-------

Total SCF time: 0 days 0 hours 0 min 1 sec 

Total time                  ....       1.373 sec
Sum of individual times     ....       1.153 sec  ( 84.0%)

Fock matrix formation       ....       1.084 sec  ( 78.9%)
  XC integration            ....       0.142 sec  ( 13.1% of F)
    Basis function eval.    ....       0.019 sec  ( 13.6% of XC)
    Density eval.           ....       0.017 sec  ( 12.1% of XC)
    XC-Functional eval.     ....       0.029 sec  ( 20.7% of XC)
    XC-Potential eval.      ....       0.011 sec  (  7.9% of XC)
Diagonalization             ....       0.004 sec  (  0.3%)
Density matrix formation    ....       0.000 sec  (  0.0%)
Population analysis         ....       0.015 sec  (  1.1%)
Initial guess               ....       0.002 sec  (  0.1%)
Orbital Transformation      ....       0.000 sec  (  0.0%)
Orbital Orthonormalization  ....       0.000 sec  (  0.0%)
DIIS solution               ....       0.004 sec  (  0.3%)
SOSCF solution              ....       0.002 sec  (  0.2%)
Grid generation             ....       0.041 sec  (  3.0%)

-------------------------   --------------------
FINAL SINGLE POINT ENERGY        -0.892253927585
-------------------------   --------------------

Storing actual gbw-file in H2_0_1_RB3LYP_def2-qzvpp.sp.001.gbw ... done

                            ***************************************
                            *     ORCA property calculations      *
                            ***************************************

                                    ---------------------
                                    Active property flags
                                    ---------------------
   (+) Dipole Moment


------------------------------------------------------------------------------
                       ORCA ELECTRIC PROPERTIES CALCULATION
------------------------------------------------------------------------------

Dipole Moment Calculation                       ... on
Quadrupole Moment Calculation                   ... off
Polarizability Calculation                      ... off
GBWName                                         ... H2_0_1_RB3LYP_def2-qzvpp.sp.gbw
Electron density file                           ... H2_0_1_RB3LYP_def2-qzvpp.sp.scfp
The origin for moment calculation is the CENTER OF MASS  = (18.852497,  0.000000  0.000000)

-------------
DIPOLE MOMENT
-------------
                                X             Y             Z
Electronic contribution:     -0.00000       0.00000       0.00000
Nuclear contribution   :     -0.00000       0.00000       0.00000
                        -----------------------------------------
Total Dipole Moment    :     -0.00000       0.00000       0.00000
                        -----------------------------------------
Magnitude (a.u.)       :      0.00000
Magnitude (Debye)      :      0.00000



--------------------
Rotational spectrum 
--------------------
 
Rotational constants in cm-1:     0.000000     0.084017     0.084017 
Rotational constants in MHz :     0.000000  2518.761623  2518.761623 

 Dipole components along the rotational axes: 
x,y,z [a.u.] :    -0.000000     0.000000     0.000000 
x,y,z [Debye]:    -0.000000     0.000000     0.000000 

 

         *************************************************************
                                TRAJECTORY STEP   2
                RHH  :  16.43574799
         *************************************************************
---------------------------------
CARTESIAN COORDINATES (ANGSTROEM)
---------------------------------
  H      0.000000    0.000000    0.000000
  H     16.435748    0.000000    0.000000

----------------------------
CARTESIAN COORDINATES (A.U.)
----------------------------
  NO LB      ZA    FRAG     MASS         X           Y           Z
   0 H     1.0000    0     1.008    0.000000    0.000000    0.000000
   1 H     1.0000    0     1.008   31.059063    0.000000    0.000000

--------------------------------
INTERNAL COORDINATES (ANGSTROEM)
--------------------------------
 H      0   0   0     0.000000000000     0.00000000     0.00000000
 H      1   0   0    16.435747993727     0.00000000     0.00000000

---------------------------
INTERNAL COORDINATES (A.U.)
---------------------------
 H      0   0   0     0.000000000000     0.00000000     0.00000000
 H      1   0   0    31.059062514290     0.00000000     0.00000000


Diagonalization of the overlap matrix:
Smallest eigenvalue                        ... 3.391e-02
Time for diagonalization                   ...    0.002 sec
Threshold for overlap eigenvalues          ... 1.000e-08
Number of eigenvalues below threshold      ... 0
Time for construction of square roots      ...    0.002 sec
Total time needed                          ...    0.003 sec

-------------------
DFT GRID GENERATION
-------------------

General Integration Accuracy     IntAcc      ...  4.340
Radial Grid Type                 RadialGrid  ... Gauss-Chebyshev
Angular Grid (max. acc.)         AngularGrid ... Lebedev-110
Angular grid pruning method      GridPruning ... 3 (G Style)
Weight generation scheme         WeightScheme... Becke
Basis function cutoff            BFCut       ...    1.0000e-11
Integration weight cutoff        WCut        ...    1.0000e-14
Grids for H and He will be reduced by one unit

# of grid points (after initial pruning)     ...   1588 (   0.0 sec)
# of grid points (after weights+screening)   ...   1588 (   0.0 sec)
nearest neighbour list constructed           ...    0.0 sec
Grid point re-assignment to atoms done       ...    0.0 sec
Grid point division into batches done        ...    0.0 sec
Reduced shell lists constructed in    0.0 sec

Total number of grid points                  ...     1588
Total number of batches                      ...       26
Average number of points per batch           ...       61
Average number of grid points per atom       ...      794
Average number of shells per batch           ...     9.70 (48.52%)
Average number of basis functions per batch  ...    28.96 (48.27%)
Average number of large shells per batch     ...     9.63 (99.24%)
Average number of large basis fcns per batch ...    28.89 (99.74%)
Maximum spatial batch extension              ...  17.62, 21.59, 21.59 au
Average spatial batch extension              ...   6.09,  8.92,  9.49 au

Time for grid setup =    0.006 sec

--------------
SCF ITERATIONS
--------------
ITER       Energy         Delta-E        Max-DP      RMS-DP      [F,P]     Damp
               ***  Starting incremental Fock matrix formation  ***
                      *** Initiating the SOSCF procedure ***
                      *** Re-Reading the Fockian *** 
                      *** Removing any level shift *** 
ITER      Energy       Delta-E        Grad      Rot      Max-DP    RMS-DP
  0     -0.89282126  -0.8928212609  0.000033  0.000033  0.000016  0.000001
               *** Restarting incremental Fock matrix formation ***
                 **** Energy Check signals convergence ****
              ***Rediagonalizing the Fockian in SOSCF/NRSCF***

               *****************************************************
               *                     SUCCESS                       *
               *           SCF CONVERGED AFTER   1 CYCLES          *
               *****************************************************

Setting up the final grid:

General Integration Accuracy     IntAcc      ...  4.670
Radial Grid Type                 RadialGrid  ... Gauss-Chebyshev
Angular Grid (max. acc.)         AngularGrid ... Lebedev-302
Angular grid pruning method      GridPruning ... 3 (G Style)
Weight generation scheme         WeightScheme... Becke
Basis function cutoff            BFCut       ...    1.0000e-11
Integration weight cutoff        WCut        ...    1.0000e-14
Grids for H and He will be reduced by one unit

# of grid points (after initial pruning)     ...   6788 (   0.0 sec)
# of grid points (after weights+screening)   ...   6788 (   0.0 sec)
nearest neighbour list constructed           ...    0.0 sec
Grid point re-assignment to atoms done       ...    0.0 sec
Grid point division into batches done        ...    0.0 sec
Reduced shell lists constructed in    0.0 sec

Total number of grid points                  ...     6788
Total number of batches                      ...      108
Average number of points per batch           ...       62
Average number of grid points per atom       ...     3394
Average number of shells per batch           ...     9.16 (45.78%)
Average number of basis functions per batch  ...    26.99 (44.98%)
Average number of large shells per batch     ...     8.64 (94.39%)
Average number of large basis fcns per batch ...    25.19 (93.34%)
Maximum spatial batch extension              ...  15.43, 15.43, 15.43 au
Average spatial batch extension              ...   4.51,  4.60,  4.61 au

Final grid set up in    0.0 sec
Final integration                            ... done (   0.0 sec)
Change in XC energy                          ...     0.000000016
Integrated number of electrons               ...     1.999995931
Previous integrated no of electrons          ...     1.999995926
Total Energy       :           -0.89282125 Eh             -24.29490 eV
  Last Energy change         ...   -3.0444e-09  Tolerance :   1.0000e-08
  Last MAX-Density change    ...    6.3309e-06  Tolerance :   1.0000e-07
             **** THE GBW FILE WAS UPDATED (H2_0_1_RB3LYP_def2-qzvpp.sp.gbw) ****
             **** DENSITY FILE WAS UPDATED (H2_0_1_RB3LYP_def2-qzvpp.sp.scfp) ****
             **** ENERGY FILE WAS UPDATED (H2_0_1_RB3LYP_def2-qzvpp.sp.en.tmp) ****
             **** THE GBW FILE WAS UPDATED (H2_0_1_RB3LYP_def2-qzvpp.sp.gbw) ****
             **** DENSITY FILE WAS UPDATED (H2_0_1_RB3LYP_def2-qzvpp.sp.scfp) ****
Total SCF time: 0 days 0 hours 0 min 0 sec 

-------------------------   --------------------
FINAL SINGLE POINT ENERGY        -0.892821247852
-------------------------   --------------------

Storing actual gbw-file in H2_0_1_RB3LYP_def2-qzvpp.sp.002.gbw ... done

                            ***************************************
                            *     ORCA property calculations      *
                            ***************************************

                                    ---------------------
                                    Active property flags
                                    ---------------------
   (+) Dipole Moment


------------------------------------------------------------------------------
                       ORCA ELECTRIC PROPERTIES CALCULATION
------------------------------------------------------------------------------

Dipole Moment Calculation                       ... on
Quadrupole Moment Calculation                   ... off
Polarizability Calculation                      ... off
GBWName                                         ... H2_0_1_RB3LYP_def2-qzvpp.sp.gbw
Electron density file                           ... H2_0_1_RB3LYP_def2-qzvpp.sp.scfp
The origin for moment calculation is the CENTER OF MASS  = (15.529531,  0.000000  0.000000)

-------------
DIPOLE MOMENT
-------------
                                X             Y             Z
Electronic contribution:     -0.00000      -0.00000       0.00000
Nuclear contribution   :      0.00000       0.00000       0.00000
                        -----------------------------------------
Total Dipole Moment    :     -0.00000      -0.00000       0.00000
                        -----------------------------------------
Magnitude (a.u.)       :      0.00000
Magnitude (Debye)      :      0.00000



--------------------
Rotational spectrum 
--------------------
 
Rotational constants in cm-1:     0.000000     0.123819     0.123819 
Rotational constants in MHz :     0.000000  3712.001304  3712.001304 

 Dipole components along the rotational axes: 
x,y,z [a.u.] :    -0.000000    -0.000000     0.000000 
x,y,z [Debye]:    -0.000000    -0.000000     0.000000 

 

         *************************************************************
                                TRAJECTORY STEP   3
                RHH  :  13.53876180
         *************************************************************
---------------------------------
CARTESIAN COORDINATES (ANGSTROEM)
---------------------------------
  H      0.000000    0.000000    0.000000
  H     13.538762    0.000000    0.000000

----------------------------
CARTESIAN COORDINATES (A.U.)
----------------------------
  NO LB      ZA    FRAG     MASS         X           Y           Z
   0 H     1.0000    0     1.008    0.000000    0.000000    0.000000
   1 H     1.0000    0     1.008   25.584552    0.000000    0.000000

--------------------------------
INTERNAL COORDINATES (ANGSTROEM)
--------------------------------
 H      0   0   0     0.000000000000     0.00000000     0.00000000
 H      1   0   0    13.538761800225     0.00000000     0.00000000

---------------------------
INTERNAL COORDINATES (A.U.)
---------------------------
 H      0   0   0     0.000000000000     0.00000000     0.00000000
 H      1   0   0    25.584551994821     0.00000000     0.00000000


Diagonalization of the overlap matrix:
Smallest eigenvalue                        ... 3.391e-02
Time for diagonalization                   ...    0.002 sec
Threshold for overlap eigenvalues          ... 1.000e-08
Number of eigenvalues below threshold      ... 0
Time for construction of square roots      ...    0.001 sec
Total time needed                          ...    0.003 sec

-------------------
DFT GRID GENERATION
-------------------

General Integration Accuracy     IntAcc      ...  4.340
Radial Grid Type                 RadialGrid  ... Gauss-Chebyshev
Angular Grid (max. acc.)         AngularGrid ... Lebedev-110
Angular grid pruning method      GridPruning ... 3 (G Style)
Weight generation scheme         WeightScheme... Becke
Basis function cutoff            BFCut       ...    1.0000e-11
Integration weight cutoff        WCut        ...    1.0000e-14
Grids for H and He will be reduced by one unit

# of grid points (after initial pruning)     ...   1588 (   0.0 sec)
# of grid points (after weights+screening)   ...   1588 (   0.0 sec)
nearest neighbour list constructed           ...    0.0 sec
Grid point re-assignment to atoms done       ...    0.0 sec
Grid point division into batches done        ...    0.0 sec
Reduced shell lists constructed in    0.0 sec

Total number of grid points                  ...     1588
Total number of batches                      ...       26
Average number of points per batch           ...       61
Average number of grid points per atom       ...      794
Average number of shells per batch           ...     9.78 (48.89%)
Average number of basis functions per batch  ...    29.04 (48.40%)
Average number of large shells per batch     ...     9.70 (99.24%)
Average number of large basis fcns per batch ...    28.96 (99.74%)
Maximum spatial batch extension              ...  17.62, 21.59, 21.59 au
Average spatial batch extension              ...   6.09,  8.91,  9.49 au

Time for grid setup =    0.006 sec

--------------
SCF ITERATIONS
--------------
ITER       Energy         Delta-E        Max-DP      RMS-DP      [F,P]     Damp
               ***  Starting incremental Fock matrix formation  ***
                      *** Initiating the SOSCF procedure ***
                      *** Re-Reading the Fockian *** 
                      *** Removing any level shift *** 
ITER      Energy       Delta-E        Grad      Rot      Max-DP    RMS-DP
  0     -0.89350943  -0.8935094338  0.000057  0.000057  0.000028  0.000002
               *** Restarting incremental Fock matrix formation ***
                 **** Energy Check signals convergence ****
              ***Rediagonalizing the Fockian in SOSCF/NRSCF***

               *****************************************************
               *                     SUCCESS                       *
               *           SCF CONVERGED AFTER   1 CYCLES          *
               *****************************************************

Setting up the final grid:

General Integration Accuracy     IntAcc      ...  4.670
Radial Grid Type                 RadialGrid  ... Gauss-Chebyshev
Angular Grid (max. acc.)         AngularGrid ... Lebedev-302
Angular grid pruning method      GridPruning ... 3 (G Style)
Weight generation scheme         WeightScheme... Becke
Basis function cutoff            BFCut       ...    1.0000e-11
Integration weight cutoff        WCut        ...    1.0000e-14
Grids for H and He will be reduced by one unit

# of grid points (after initial pruning)     ...   6788 (   0.0 sec)
# of grid points (after weights+screening)   ...   6788 (   0.0 sec)
nearest neighbour list constructed           ...    0.0 sec
Grid point re-assignment to atoms done       ...    0.0 sec
Grid point division into batches done        ...    0.0 sec
Reduced shell lists constructed in    0.0 sec

Total number of grid points                  ...     6788
Total number of batches                      ...      108
Average number of points per batch           ...       62
Average number of grid points per atom       ...     3394
Average number of shells per batch           ...     9.17 (45.87%)
Average number of basis functions per batch  ...    27.01 (45.02%)
Average number of large shells per batch     ...     8.66 (94.40%)
Average number of large basis fcns per batch ...    25.21 (93.34%)
Maximum spatial batch extension              ...  15.43, 15.43, 15.43 au
Average spatial batch extension              ...   4.52,  4.60,  4.61 au

Final grid set up in    0.0 sec
Final integration                            ... done (   0.0 sec)
Change in XC energy                          ...     0.000000015
Integrated number of electrons               ...     1.999983934
Previous integrated no of electrons          ...     1.999983914
Total Energy       :           -0.89350943 Eh             -24.31363 eV
  Last Energy change         ...   -9.3092e-09  Tolerance :   1.0000e-08
  Last MAX-Density change    ...    1.1095e-05  Tolerance :   1.0000e-07
             **** THE GBW FILE WAS UPDATED (H2_0_1_RB3LYP_def2-qzvpp.sp.gbw) ****
             **** DENSITY FILE WAS UPDATED (H2_0_1_RB3LYP_def2-qzvpp.sp.scfp) ****
             **** ENERGY FILE WAS UPDATED (H2_0_1_RB3LYP_def2-qzvpp.sp.en.tmp) ****
             **** THE GBW FILE WAS UPDATED (H2_0_1_RB3LYP_def2-qzvpp.sp.gbw) ****
             **** DENSITY FILE WAS UPDATED (H2_0_1_RB3LYP_def2-qzvpp.sp.scfp) ****
Total SCF time: 0 days 0 hours 0 min 0 sec 

-------------------------   --------------------
FINAL SINGLE POINT ENERGY        -0.893509427980
-------------------------   --------------------

Storing actual gbw-file in H2_0_1_RB3LYP_def2-qzvpp.sp.003.gbw ... done

                            ***************************************
                            *     ORCA property calculations      *
                            ***************************************

                                    ---------------------
                                    Active property flags
                                    ---------------------
   (+) Dipole Moment


------------------------------------------------------------------------------
                       ORCA ELECTRIC PROPERTIES CALCULATION
------------------------------------------------------------------------------

Dipole Moment Calculation                       ... on
Quadrupole Moment Calculation                   ... off
Polarizability Calculation                      ... off
GBWName                                         ... H2_0_1_RB3LYP_def2-qzvpp.sp.gbw
Electron density file                           ... H2_0_1_RB3LYP_def2-qzvpp.sp.scfp
The origin for moment calculation is the CENTER OF MASS  = (12.792276,  0.000000  0.000000)

-------------
DIPOLE MOMENT
-------------
                                X             Y             Z
Electronic contribution:      0.00000      -0.00000       0.00000
Nuclear contribution   :      0.00000       0.00000       0.00000
                        -----------------------------------------
Total Dipole Moment    :      0.00000      -0.00000       0.00000
                        -----------------------------------------
Magnitude (a.u.)       :      0.00000
Magnitude (Debye)      :      0.00000



--------------------
Rotational spectrum 
--------------------
 
Rotational constants in cm-1:     0.000000     0.182477     0.182477 
Rotational constants in MHz :     0.000000  5470.527087  5470.527087 

 Dipole components along the rotational axes: 
x,y,z [a.u.] :     0.000000    -0.000000     0.000000 
x,y,z [Debye]:     0.000000    -0.000000     0.000000 

 

         *************************************************************
                                TRAJECTORY STEP   4
                RHH  :  11.15240214
         *************************************************************
---------------------------------
CARTESIAN COORDINATES (ANGSTROEM)
---------------------------------
  H      0.000000    0.000000    0.000000
  H     11.152402    0.000000    0.000000

----------------------------
CARTESIAN COORDINATES (A.U.)
----------------------------
  NO LB      ZA    FRAG     MASS         X           Y           Z
   0 H     1.0000    0     1.008    0.000000    0.000000    0.000000
   1 H     1.0000    0     1.008   21.074986    0.000000    0.000000

--------------------------------
INTERNAL COORDINATES (ANGSTROEM)
--------------------------------
 H      0   0   0     0.000000000000     0.00000000     0.00000000
 H      1   0   0    11.152402139118     0.00000000     0.00000000

---------------------------
INTERNAL COORDINATES (A.U.)
---------------------------
 H      0   0   0     0.000000000000     0.00000000     0.00000000
 H      1   0   0    21.074985778290     0.00000000     0.00000000


Diagonalization of the overlap matrix:
Smallest eigenvalue                        ... 3.391e-02
Time for diagonalization                   ...    0.002 sec
Threshold for overlap eigenvalues          ... 1.000e-08
Number of eigenvalues below threshold      ... 0
Time for construction of square roots      ...    0.002 sec
Total time needed                          ...    0.004 sec

-------------------
DFT GRID GENERATION
-------------------

General Integration Accuracy     IntAcc      ...  4.340
Radial Grid Type                 RadialGrid  ... Gauss-Chebyshev
Angular Grid (max. acc.)         AngularGrid ... Lebedev-110
Angular grid pruning method      GridPruning ... 3 (G Style)
Weight generation scheme         WeightScheme... Becke
Basis function cutoff            BFCut       ...    1.0000e-11
Integration weight cutoff        WCut        ...    1.0000e-14
Grids for H and He will be reduced by one unit

# of grid points (after initial pruning)     ...   1588 (   0.0 sec)
# of grid points (after weights+screening)   ...   1588 (   0.0 sec)
nearest neighbour list constructed           ...    0.0 sec
Grid point re-assignment to atoms done       ...    0.0 sec
Grid point division into batches done        ...    0.0 sec
Reduced shell lists constructed in    0.0 sec

Total number of grid points                  ...     1588
Total number of batches                      ...       26
Average number of points per batch           ...       61
Average number of grid points per atom       ...      794
Average number of shells per batch           ...    10.00 (50.00%)
Average number of basis functions per batch  ...    29.26 (48.77%)
Average number of large shells per batch     ...     9.70 (97.04%)
Average number of large basis fcns per batch ...    28.96 (98.99%)
Maximum spatial batch extension              ...  19.09, 21.59, 21.59 au
Average spatial batch extension              ...   7.68,  9.17,  8.49 au

Time for grid setup =    0.007 sec

--------------
SCF ITERATIONS
--------------
ITER       Energy         Delta-E        Max-DP      RMS-DP      [F,P]     Damp
               ***  Starting incremental Fock matrix formation  ***
                      *** Initiating the SOSCF procedure ***
                      *** Re-Reading the Fockian *** 
                      *** Removing any level shift *** 
ITER      Energy       Delta-E        Grad      Rot      Max-DP    RMS-DP
  0     -0.89435795  -0.8943579506  0.000087  0.000087  0.000101  0.000005
               *** Restarting incremental Fock matrix formation ***
  1     -0.89435798  -0.0000000268  0.000025  0.000038  0.000048  0.000002
                 **** Energy Check signals convergence ****
              ***Rediagonalizing the Fockian in SOSCF/NRSCF***

               *****************************************************
               *                     SUCCESS                       *
               *           SCF CONVERGED AFTER   2 CYCLES          *
               *****************************************************

Setting up the final grid:

General Integration Accuracy     IntAcc      ...  4.670
Radial Grid Type                 RadialGrid  ... Gauss-Chebyshev
Angular Grid (max. acc.)         AngularGrid ... Lebedev-302
Angular grid pruning method      GridPruning ... 3 (G Style)
Weight generation scheme         WeightScheme... Becke
Basis function cutoff            BFCut       ...    1.0000e-11
Integration weight cutoff        WCut        ...    1.0000e-14
Grids for H and He will be reduced by one unit

# of grid points (after initial pruning)     ...   6788 (   0.0 sec)
# of grid points (after weights+screening)   ...   6788 (   0.0 sec)
nearest neighbour list constructed           ...    0.0 sec
Grid point re-assignment to atoms done       ...    0.0 sec
Grid point division into batches done        ...    0.0 sec
Reduced shell lists constructed in    0.0 sec

Total number of grid points                  ...     6788
Total number of batches                      ...      108
Average number of points per batch           ...       62
Average number of grid points per atom       ...     3394
Average number of shells per batch           ...     9.40 (47.02%)
Average number of basis functions per batch  ...    27.73 (46.22%)
Average number of large shells per batch     ...     8.94 (95.02%)
Average number of large basis fcns per batch ...    26.07 (94.01%)
Maximum spatial batch extension              ...  15.43, 17.51, 20.37 au
Average spatial batch extension              ...   4.31,  4.56,  4.72 au

Final grid set up in    0.0 sec
Final integration                            ... done (   0.0 sec)
Change in XC energy                          ...     0.000011285
Integrated number of electrons               ...     2.000005268
Previous integrated no of electrons          ...     2.000214371
Total Energy       :           -0.89434669 Eh             -24.33641 eV
  Last Energy change         ...   -2.6115e-09  Tolerance :   1.0000e-08
  Last MAX-Density change    ...    1.3437e-06  Tolerance :   1.0000e-07
             **** THE GBW FILE WAS UPDATED (H2_0_1_RB3LYP_def2-qzvpp.sp.gbw) ****
             **** DENSITY FILE WAS UPDATED (H2_0_1_RB3LYP_def2-qzvpp.sp.scfp) ****
             **** ENERGY FILE WAS UPDATED (H2_0_1_RB3LYP_def2-qzvpp.sp.en.tmp) ****
             **** THE GBW FILE WAS UPDATED (H2_0_1_RB3LYP_def2-qzvpp.sp.gbw) ****
             **** DENSITY FILE WAS UPDATED (H2_0_1_RB3LYP_def2-qzvpp.sp.scfp) ****
Total SCF time: 0 days 0 hours 0 min 0 sec 

-------------------------   --------------------
FINAL SINGLE POINT ENERGY        -0.894346694849
-------------------------   --------------------

Storing actual gbw-file in H2_0_1_RB3LYP_def2-qzvpp.sp.004.gbw ... done

                            ***************************************
                            *     ORCA property calculations      *
                            ***************************************

                                    ---------------------
                                    Active property flags
                                    ---------------------
   (+) Dipole Moment


------------------------------------------------------------------------------
                       ORCA ELECTRIC PROPERTIES CALCULATION
------------------------------------------------------------------------------

Dipole Moment Calculation                       ... on
Quadrupole Moment Calculation                   ... off
Polarizability Calculation                      ... off
GBWName                                         ... H2_0_1_RB3LYP_def2-qzvpp.sp.gbw
Electron density file                           ... H2_0_1_RB3LYP_def2-qzvpp.sp.scfp
The origin for moment calculation is the CENTER OF MASS  = (10.537493,  0.000000  0.000000)

-------------
DIPOLE MOMENT
-------------
                                X             Y             Z
Electronic contribution:      0.00000       0.00000      -0.00000
Nuclear contribution   :     -0.00000       0.00000       0.00000
                        -----------------------------------------
Total Dipole Moment    :      0.00000       0.00000      -0.00000
                        -----------------------------------------
Magnitude (a.u.)       :      0.00000
Magnitude (Debye)      :      0.00000



--------------------
Rotational spectrum 
--------------------
 
Rotational constants in cm-1:     0.000000     0.268924     0.268924 
Rotational constants in MHz :     0.000000  8062.137957  8062.137957 

 Dipole components along the rotational axes: 
x,y,z [a.u.] :     0.000001     0.000000    -0.000000 
x,y,z [Debye]:     0.000003     0.000000    -0.000000 

 

         *************************************************************
                                TRAJECTORY STEP   5
                RHH  :   9.18666532
         *************************************************************
---------------------------------
CARTESIAN COORDINATES (ANGSTROEM)
---------------------------------
  H      0.000000    0.000000    0.000000
  H      9.186665    0.000000    0.000000

----------------------------
CARTESIAN COORDINATES (A.U.)
----------------------------
  NO LB      ZA    FRAG     MASS         X           Y           Z
   0 H     1.0000    0     1.008    0.000000    0.000000    0.000000
   1 H     1.0000    0     1.008   17.360282    0.000000    0.000000

--------------------------------
INTERNAL COORDINATES (ANGSTROEM)
--------------------------------
 H      0   0   0     0.000000000000     0.00000000     0.00000000
 H      1   0   0     9.186665317543     0.00000000     0.00000000

---------------------------
INTERNAL COORDINATES (A.U.)
---------------------------
 H      0   0   0     0.000000000000     0.00000000     0.00000000
 H      1   0   0    17.360281534148     0.00000000     0.00000000


Diagonalization of the overlap matrix:
Smallest eigenvalue                        ... 3.391e-02
Time for diagonalization                   ...    0.002 sec
Threshold for overlap eigenvalues          ... 1.000e-08
Number of eigenvalues below threshold      ... 0
Time for construction of square roots      ...    0.002 sec
Total time needed                          ...    0.003 sec

-------------------
DFT GRID GENERATION
-------------------

General Integration Accuracy     IntAcc      ...  4.340
Radial Grid Type                 RadialGrid  ... Gauss-Chebyshev
Angular Grid (max. acc.)         AngularGrid ... Lebedev-110
Angular grid pruning method      GridPruning ... 3 (G Style)
Weight generation scheme         WeightScheme... Becke
Basis function cutoff            BFCut       ...    1.0000e-11
Integration weight cutoff        WCut        ...    1.0000e-14
Grids for H and He will be reduced by one unit

# of grid points (after initial pruning)     ...   1588 (   0.0 sec)
# of grid points (after weights+screening)   ...   1588 (   0.0 sec)
nearest neighbour list constructed           ...    0.0 sec
Grid point re-assignment to atoms done       ...    0.0 sec
Grid point division into batches done        ...    0.0 sec
Reduced shell lists constructed in    0.0 sec

Total number of grid points                  ...     1588
Total number of batches                      ...       26
Average number of points per batch           ...       61
Average number of grid points per atom       ...      794
Average number of shells per batch           ...    10.70 (53.52%)
Average number of basis functions per batch  ...    30.11 (50.19%)
Average number of large shells per batch     ...     9.74 (91.00%)
Average number of large basis fcns per batch ...    29.00 (96.31%)
Maximum spatial batch extension              ...  17.36, 21.59, 21.59 au
Average spatial batch extension              ...   6.76,  8.92,  8.29 au

Time for grid setup =    0.007 sec

--------------
SCF ITERATIONS
--------------
ITER       Energy         Delta-E        Max-DP      RMS-DP      [F,P]     Damp
               ***  Starting incremental Fock matrix formation  ***
                      *** Initiating the SOSCF procedure ***
                      *** Re-Reading the Fockian *** 
                      *** Removing any level shift *** 
ITER      Energy       Delta-E        Grad      Rot      Max-DP    RMS-DP
  0     -0.89543743  -0.8954374309  0.000228  0.000228  0.000188  0.000010
               *** Restarting incremental Fock matrix formation ***
  1     -0.89543762  -0.0000001919  0.000065  0.000099  0.000073  0.000004
                  ***Gradient check signals convergence***
              ***Rediagonalizing the Fockian in SOSCF/NRSCF***

               *****************************************************
               *                     SUCCESS                       *
               *           SCF CONVERGED AFTER   2 CYCLES          *
               *****************************************************

Setting up the final grid:

General Integration Accuracy     IntAcc      ...  4.670
Radial Grid Type                 RadialGrid  ... Gauss-Chebyshev
Angular Grid (max. acc.)         AngularGrid ... Lebedev-302
Angular grid pruning method      GridPruning ... 3 (G Style)
Weight generation scheme         WeightScheme... Becke
Basis function cutoff            BFCut       ...    1.0000e-11
Integration weight cutoff        WCut        ...    1.0000e-14
Grids for H and He will be reduced by one unit

# of grid points (after initial pruning)     ...   6788 (   0.0 sec)
# of grid points (after weights+screening)   ...   6788 (   0.0 sec)
nearest neighbour list constructed           ...    0.0 sec
Grid point re-assignment to atoms done       ...    0.0 sec
Grid point division into batches done        ...    0.0 sec
Reduced shell lists constructed in    0.0 sec

Total number of grid points                  ...     6788
Total number of batches                      ...      108
Average number of points per batch           ...       62
Average number of grid points per atom       ...     3394
Average number of shells per batch           ...    10.10 (50.50%)
Average number of basis functions per batch  ...    28.30 (47.17%)
Average number of large shells per batch     ...     8.97 (88.83%)
Average number of large basis fcns per batch ...    25.96 (91.73%)
Maximum spatial batch extension              ...  18.85, 15.56, 22.27 au
Average spatial batch extension              ...   4.62,  4.59,  4.79 au

Final grid set up in    0.0 sec
Final integration                            ... done (   0.0 sec)
Change in XC energy                          ...     0.000078622
Integrated number of electrons               ...     1.999948028
Previous integrated no of electrons          ...     2.000518651
Total Energy       :           -0.89535902 Eh             -24.36396 eV
  Last Energy change         ...   -1.5411e-08  Tolerance :   1.0000e-08
  Last MAX-Density change    ...    7.2077e-06  Tolerance :   1.0000e-07
             **** THE GBW FILE WAS UPDATED (H2_0_1_RB3LYP_def2-qzvpp.sp.gbw) ****
             **** DENSITY FILE WAS UPDATED (H2_0_1_RB3LYP_def2-qzvpp.sp.scfp) ****
             **** ENERGY FILE WAS UPDATED (H2_0_1_RB3LYP_def2-qzvpp.sp.en.tmp) ****
             **** THE GBW FILE WAS UPDATED (H2_0_1_RB3LYP_def2-qzvpp.sp.gbw) ****
             **** DENSITY FILE WAS UPDATED (H2_0_1_RB3LYP_def2-qzvpp.sp.scfp) ****
Total SCF time: 0 days 0 hours 0 min 0 sec 

-------------------------   --------------------
FINAL SINGLE POINT ENERGY        -0.895359016569
-------------------------   --------------------

Storing actual gbw-file in H2_0_1_RB3LYP_def2-qzvpp.sp.005.gbw ... done

                            ***************************************
                            *     ORCA property calculations      *
                            ***************************************

                                    ---------------------
                                    Active property flags
                                    ---------------------
   (+) Dipole Moment


------------------------------------------------------------------------------
                       ORCA ELECTRIC PROPERTIES CALCULATION
------------------------------------------------------------------------------

Dipole Moment Calculation                       ... on
Quadrupole Moment Calculation                   ... off
Polarizability Calculation                      ... off
GBWName                                         ... H2_0_1_RB3LYP_def2-qzvpp.sp.gbw
Electron density file                           ... H2_0_1_RB3LYP_def2-qzvpp.sp.scfp
The origin for moment calculation is the CENTER OF MASS  = ( 8.680141,  0.000000  0.000000)

-------------
DIPOLE MOMENT
-------------
                                X             Y             Z
Electronic contribution:      0.00003       0.00000       0.00000
Nuclear contribution   :      0.00000       0.00000       0.00000
                        -----------------------------------------
Total Dipole Moment    :      0.00003       0.00000       0.00000
                        -----------------------------------------
Magnitude (a.u.)       :      0.00003
Magnitude (Debye)      :      0.00008



--------------------
Rotational spectrum 
--------------------
 
Rotational constants in cm-1:     0.000000     0.396324     0.396324 
[...]
SCF ITERATIONS
--------------
ITER       Energy         Delta-E        Max-DP      RMS-DP      [F,P]     Damp
               ***  Starting incremental Fock matrix formation  ***
  0     -1.1547677378   0.000000000000 0.00214019  0.00013965  0.0731765 0.7000
  1     -1.1557921904  -0.001024452645 0.00172805  0.00011763  0.0514096 0.7000
                               ***Turning on DIIS***
  2     -1.1564744651  -0.000682274641 0.00392142  0.00027347  0.0340384 0.0000
  3     -1.1578361831  -0.001361718012 0.00107579  0.00005041  0.0055935 0.0000
                      *** Initiating the SOSCF procedure ***
                           *** Shutting down DIIS ***
                      *** Re-Reading the Fockian *** 
                      *** Removing any level shift *** 
ITER      Energy       Delta-E        Grad      Rot      Max-DP    RMS-DP
  4     -1.15786713  -0.0000309421  0.000487  0.000487  0.000207  0.000010
               *** Restarting incremental Fock matrix formation ***
  5     -1.15786828  -0.0000011597  0.000146  0.000256  0.000101  0.000006
  6     -1.15786835  -0.0000000694  0.000030  0.000020  0.000016  0.000001
                 **** Energy Check signals convergence ****
              ***Rediagonalizing the Fockian in SOSCF/NRSCF***

               *****************************************************
               *                     SUCCESS                       *
               *           SCF CONVERGED AFTER   7 CYCLES          *
               *****************************************************

Setting up the final grid:

General Integration Accuracy     IntAcc      ...  4.670
Radial Grid Type                 RadialGrid  ... Gauss-Chebyshev
Angular Grid (max. acc.)         AngularGrid ... Lebedev-302
Angular grid pruning method      GridPruning ... 3 (G Style)
Weight generation scheme         WeightScheme... Becke
Basis function cutoff            BFCut       ...    1.0000e-11
Integration weight cutoff        WCut        ...    1.0000e-14
Grids for H and He will be reduced by one unit

# of grid points (after initial pruning)     ...   6788 (   0.0 sec)
# of grid points (after weights+screening)   ...   6756 (   0.0 sec)
nearest neighbour list constructed           ...    0.0 sec
Grid point re-assignment to atoms done       ...    0.0 sec
Grid point division into batches done        ...    0.0 sec
Reduced shell lists constructed in    0.0 sec

Total number of grid points                  ...     6756
Total number of batches                      ...      106
Average number of points per batch           ...       63
Average number of grid points per atom       ...     3378
Average number of shells per batch           ...    17.93 (89.63%)
Average number of basis functions per batch  ...    52.41 (87.35%)
Average number of large shells per batch     ...    17.07 (95.26%)
Average number of large basis fcns per batch ...    49.90 (95.20%)
Maximum spatial batch extension              ...  13.36, 15.43, 15.43 au
Average spatial batch extension              ...   3.18,  3.81,  3.77 au

Final grid set up in    0.0 sec
Final integration                            ... done (   0.0 sec)
Change in XC energy                          ...     0.000101788
Integrated number of electrons               ...     2.000000509
Previous integrated no of electrons          ...     2.001841086
Total Energy       :           -1.15776657 Eh             -31.50443 eV
  Last Energy change         ...   -2.4241e-09  Tolerance :   1.0000e-08
  Last MAX-Density change    ...    4.6341e-07  Tolerance :   1.0000e-07
             **** THE GBW FILE WAS UPDATED (H2_0_1_RB3LYP_def2-qzvpp.sp.gbw) ****
             **** DENSITY FILE WAS UPDATED (H2_0_1_RB3LYP_def2-qzvpp.sp.scfp) ****
             **** ENERGY FILE WAS UPDATED (H2_0_1_RB3LYP_def2-qzvpp.sp.en.tmp) ****
             **** THE GBW FILE WAS UPDATED (H2_0_1_RB3LYP_def2-qzvpp.sp.gbw) ****
             **** DENSITY FILE WAS UPDATED (H2_0_1_RB3LYP_def2-qzvpp.sp.scfp) ****
Total SCF time: 0 days 0 hours 0 min 1 sec 

-------------------------   --------------------
FINAL SINGLE POINT ENERGY        -1.157766568558
-------------------------   --------------------

Storing actual gbw-file in H2_0_1_RB3LYP_def2-qzvpp.sp.019.gbw ... done

                            ***************************************
                            *     ORCA property calculations      *
                            ***************************************

                                    ---------------------
                                    Active property flags
                                    ---------------------
   (+) Dipole Moment


------------------------------------------------------------------------------
                       ORCA ELECTRIC PROPERTIES CALCULATION
------------------------------------------------------------------------------

Dipole Moment Calculation                       ... on
Quadrupole Moment Calculation                   ... off
Polarizability Calculation                      ... off
GBWName                                         ... H2_0_1_RB3LYP_def2-qzvpp.sp.gbw
Electron density file                           ... H2_0_1_RB3LYP_def2-qzvpp.sp.scfp
The origin for moment calculation is the CENTER OF MASS  = ( 0.574883,  0.000000  0.000000)

-------------
DIPOLE MOMENT
-------------
                                X             Y             Z
Electronic contribution:      0.00000      -0.00000       0.00000
Nuclear contribution   :      0.00000       0.00000       0.00000
                        -----------------------------------------
Total Dipole Moment    :      0.00000      -0.00000       0.00000
                        -----------------------------------------
Magnitude (a.u.)       :      0.00000
Magnitude (Debye)      :      0.00000



--------------------
Rotational spectrum 
--------------------
 
Rotational constants in cm-1:     0.000000    90.353569    90.353569 
Rotational constants in MHz :     0.000000 2708731.853415 2708731.853415 

 Dipole components along the rotational axes: 
x,y,z [a.u.] :     0.000000    -0.000000     0.000000 
x,y,z [Debye]:     0.000000    -0.000000     0.000000 

 

         *************************************************************
                                TRAJECTORY STEP  20
                RHH  :   0.50118723
         *************************************************************
---------------------------------
CARTESIAN COORDINATES (ANGSTROEM)
---------------------------------
  H      0.000000    0.000000    0.000000
  H      0.501187    0.000000    0.000000

----------------------------
CARTESIAN COORDINATES (A.U.)
----------------------------
  NO LB      ZA    FRAG     MASS         X           Y           Z
   0 H     1.0000    0     1.008    0.000000    0.000000    0.000000
   1 H     1.0000    0     1.008    0.947107    0.000000    0.000000

--------------------------------
INTERNAL COORDINATES (ANGSTROEM)
--------------------------------
 H      0   0   0     0.000000000000     0.00000000     0.00000000
 H      1   0   0     0.501187233627     0.00000000     0.00000000

---------------------------
INTERNAL COORDINATES (A.U.)
---------------------------
 H      0   0   0     0.000000000000     0.00000000     0.00000000
 H      1   0   0     0.947106613373     0.00000000     0.00000000


Diagonalization of the overlap matrix:
Smallest eigenvalue                        ... 5.708e-05
Time for diagonalization                   ...    0.002 sec
Threshold for overlap eigenvalues          ... 1.000e-08
Number of eigenvalues below threshold      ... 0
Time for construction of square roots      ...    0.002 sec
Total time needed                          ...    0.004 sec

-------------------
DFT GRID GENERATION
-------------------

General Integration Accuracy     IntAcc      ...  4.340
Radial Grid Type                 RadialGrid  ... Gauss-Chebyshev
Angular Grid (max. acc.)         AngularGrid ... Lebedev-110
Angular grid pruning method      GridPruning ... 3 (G Style)
Weight generation scheme         WeightScheme... Becke
Basis function cutoff            BFCut       ...    1.0000e-11
Integration weight cutoff        WCut        ...    1.0000e-14
Grids for H and He will be reduced by one unit

# of grid points (after initial pruning)     ...   1588 (   0.0 sec)
# of grid points (after weights+screening)   ...   1560 (   0.0 sec)
nearest neighbour list constructed           ...    0.0 sec
Grid point re-assignment to atoms done       ...    0.0 sec
Grid point division into batches done        ...    0.0 sec
Reduced shell lists constructed in    0.0 sec

Total number of grid points                  ...     1560
Total number of batches                      ...       26
Average number of points per batch           ...       60
Average number of grid points per atom       ...      780
Average number of shells per batch           ...    19.15 (95.74%)
Average number of basis functions per batch  ...    57.44 (95.74%)
Average number of large shells per batch     ...    18.78 (98.07%)
Average number of large basis fcns per batch ...    56.19 (97.81%)
Maximum spatial batch extension              ...  15.26, 21.59, 21.59 au
Average spatial batch extension              ...   4.46,  7.66,  7.77 au

Time for grid setup =    0.007 sec

--------------
SCF ITERATIONS
--------------
ITER       Energy         Delta-E        Max-DP      RMS-DP      [F,P]     Damp
               ***  Starting incremental Fock matrix formation  ***
  0     -1.1014262055   0.000000000000 0.00241765  0.00014511  0.0783858 0.7000
  1     -1.1024468865  -0.001020680991 0.00184146  0.00011869  0.0544956 0.7000
                               ***Turning on DIIS***
  2     -1.1031166918  -0.000669805284 0.00417304  0.00027064  0.0356094 0.0000
  3     -1.1044394520  -0.001322760276 0.00099651  0.00004962  0.0069057 0.0000
                      *** Initiating the SOSCF procedure ***
                           *** Shutting down DIIS ***
                      *** Re-Reading the Fockian *** 
                      *** Removing any level shift *** 
ITER      Energy       Delta-E        Grad      Rot      Max-DP    RMS-DP
  4     -1.10447370  -0.0000342523  0.000483  0.000483  0.000198  0.000010
               *** Restarting incremental Fock matrix formation ***
  5     -1.10447479  -0.0000010835  0.000139  0.000234  0.000078  0.000005
  6     -1.10447485  -0.0000000610  0.000029  0.000019  0.000015  0.000001
                 **** Energy Check signals convergence ****
              ***Rediagonalizing the Fockian in SOSCF/NRSCF***

               *****************************************************
               *                     SUCCESS                       *
               *           SCF CONVERGED AFTER   7 CYCLES          *
               *****************************************************

Setting up the final grid:

General Integration Accuracy     IntAcc      ...  4.670
Radial Grid Type                 RadialGrid  ... Gauss-Chebyshev
Angular Grid (max. acc.)         AngularGrid ... Lebedev-302
Angular grid pruning method      GridPruning ... 3 (G Style)
Weight generation scheme         WeightScheme... Becke
Basis function cutoff            BFCut       ...    1.0000e-11
Integration weight cutoff        WCut        ...    1.0000e-14
Grids for H and He will be reduced by one unit

# of grid points (after initial pruning)     ...   6788 (   0.0 sec)
# of grid points (after weights+screening)   ...   6754 (   0.0 sec)
nearest neighbour list constructed           ...    0.0 sec
Grid point re-assignment to atoms done       ...    0.0 sec
Grid point division into batches done        ...    0.0 sec
Reduced shell lists constructed in    0.0 sec

Total number of grid points                  ...     6754
Total number of batches                      ...      106
Average number of points per batch           ...       63
Average number of grid points per atom       ...     3377
Average number of shells per batch           ...    17.91 (89.53%)
Average number of basis functions per batch  ...    52.34 (87.23%)
Average number of large shells per batch     ...    17.07 (95.35%)
Average number of large basis fcns per batch ...    49.95 (95.45%)
Maximum spatial batch extension              ...  13.36, 15.43, 15.43 au
Average spatial batch extension              ...   3.21,  3.81,  3.72 au

Final grid set up in    0.0 sec
Final integration                            ... done (   0.0 sec)
Change in XC energy                          ...     0.000240096
Integrated number of electrons               ...     2.000000679
Previous integrated no of electrons          ...     2.002880027
Total Energy       :           -1.10423475 Eh             -30.04776 eV
  Last Energy change         ...   -2.1237e-09  Tolerance :   1.0000e-08
  Last MAX-Density change    ...    7.3249e-07  Tolerance :   1.0000e-07
             **** THE GBW FILE WAS UPDATED (H2_0_1_RB3LYP_def2-qzvpp.sp.gbw) ****
             **** DENSITY FILE WAS UPDATED (H2_0_1_RB3LYP_def2-qzvpp.sp.scfp) ****
             **** ENERGY FILE WAS UPDATED (H2_0_1_RB3LYP_def2-qzvpp.sp.en.tmp) ****
             **** THE GBW FILE WAS UPDATED (H2_0_1_RB3LYP_def2-qzvpp.sp.gbw) ****
             **** DENSITY FILE WAS UPDATED (H2_0_1_RB3LYP_def2-qzvpp.sp.scfp) ****
Total SCF time: 0 days 0 hours 0 min 1 sec 

-------------------------   --------------------
FINAL SINGLE POINT ENERGY        -1.104234754946
-------------------------   --------------------

Storing actual gbw-file in H2_0_1_RB3LYP_def2-qzvpp.sp.020.gbw ... done

                            ***************************************
                            *     ORCA property calculations      *
                            ***************************************

                                    ---------------------
                                    Active property flags
                                    ---------------------
   (+) Dipole Moment


------------------------------------------------------------------------------
                       ORCA ELECTRIC PROPERTIES CALCULATION
------------------------------------------------------------------------------

Dipole Moment Calculation                       ... on
Quadrupole Moment Calculation                   ... off
Polarizability Calculation                      ... off
GBWName                                         ... H2_0_1_RB3LYP_def2-qzvpp.sp.gbw
Electron density file                           ... H2_0_1_RB3LYP_def2-qzvpp.sp.scfp
The origin for moment calculation is the CENTER OF MASS  = ( 0.473553,  0.000000  0.000000)

-------------
DIPOLE MOMENT
-------------
                                X             Y             Z
Electronic contribution:      0.00000       0.00000      -0.00000
Nuclear contribution   :      0.00000       0.00000       0.00000
                        -----------------------------------------
Total Dipole Moment    :      0.00000       0.00000      -0.00000
                        -----------------------------------------
Magnitude (a.u.)       :      0.00000
Magnitude (Debye)      :      0.00000



--------------------
Rotational spectrum 
--------------------
 
Rotational constants in cm-1:     0.000000   133.157724   133.157724 
Rotational constants in MHz :     0.000000 3991968.149099 3991968.149099 

 Dipole components along the rotational axes: 
x,y,z [a.u.] :     0.000000     0.000000    -0.000000 
x,y,z [Debye]:     0.000000     0.000000    -0.000000 

 
                              **** TRAJECTORY DONE ***

                         SUMMARY OF THE CALCULATED SURFACE

------------------
TRAJECTORY RESULTS
------------------

Column   1: RHH

The Calculated Surface using the 'Actual Energy'
  19.95262315  -0.89225393
  16.43574799  -0.89282125
  13.53876180  -0.89350943
  11.15240214  -0.89434669
   9.18666532  -0.89535902
   7.56741181  -0.89662599
   6.23357002  -0.89836172
   5.13483291  -0.90126539
   4.22976062  -0.90686203
   3.48421754  -0.91758195
   2.87008485  -0.93604983
   2.36419999  -0.96394276
   1.94748304  -1.00096318
   1.60421716  -1.04448397
   1.32145577  -1.09003064
   1.08853427  -1.13159419
   0.89666781  -1.16219958
   0.73861998  -1.17386711
   0.60842987  -1.15776657
   0.50118723  -1.10423475

                        *******************************
                        *   FIT OF THE ACT-ENERGY PES *
                        *******************************
-------------------------------
POTENTIAL ENERGY SURFACE =   0
-------------------------------

Minimum found after 17 iterations
Equilibrium distance and its energy from the interpolated PES:
  Re      =   0.72654 Angstroem  (  1.37297 Bohr)
  E(Re)   =    -1.173949 Eh 
  dE/dR   = -1.991e-09 (-1.108e-01 CHEB)
  d2E/dR2 =    0.344598 (   0.796621 CHEB) (  -0.015186 NUM)
  d3E/dR3 =   -4.100216 (  -2.968838 CHEB)

Spectroscopic constants:
  we =    4267.5 cm**-1 (based on SPLINE)
  we =    6488.5 cm**-1 (based on CHEB)
  we =      -nan cm**-1 (based on NUM)

Performing Morse fit ...
Morse-Fit Results:
 Te(adiabatic)   =    1297.6 cm**-1         =  0.161 eV
 d2E/dR**2 (Morse)=      0.272031518 
 d3E/dR**3 (Morse)=     -0.578530289 
 d4E/dR**4 (Morse)=      0.956948374 
 E0               =     -1.168036609 Eh  RMS=4.25e-06
 Re               =   0.78134 Angstroem      =  1.47652 Bohr RMS=2.77e-05)
 De(Morse)        =   7.36493 eV             =  59402.2 cm**-1 RMS=4.91e-06
 D0(Morse)        =   7.12988 eV
 beta             =   0.70890 au          RMS=2.45e-05
 we               =   3791.7 cm**-1
 wexe             =     60.5 cm**-1
 Displacement   =    0.0548 Angstroem      =  0.10356 Bohr

The Calculated Surface using the SCF energy
  19.95262315  -0.89225393
  16.43574799  -0.89282125
  13.53876180  -0.89350943
  11.15240214  -0.89434669
   9.18666532  -0.89535902
   7.56741181  -0.89662599
   6.23357002  -0.89836172
   5.13483291  -0.90126539
   4.22976062  -0.90686203
   3.48421754  -0.91758195
   2.87008485  -0.93604983
   2.36419999  -0.96394276
   1.94748304  -1.00096318
   1.60421716  -1.04448397
   1.32145577  -1.09003064
   1.08853427  -1.13159419
   0.89666781  -1.16219958
   0.73861998  -1.17386711
   0.60842987  -1.15776657
   0.50118723  -1.10423475

                        *******************************
                        *       FIT OF THE SCF PES    *
                        *******************************
-------------------------------
POTENTIAL ENERGY SURFACE =   0
-------------------------------

Minimum found after 17 iterations
Equilibrium distance and its energy from the interpolated PES:
  Re      =   0.72654 Angstroem  (  1.37297 Bohr)
  E(Re)   =    -1.173949 Eh 
  dE/dR   = -1.991e-09 (-1.108e-01 CHEB)
  d2E/dR2 =    0.344598 (   0.796621 CHEB) (  -0.015186 NUM)
  d3E/dR3 =   -4.100216 (  -2.968838 CHEB)

Spectroscopic constants:
  we =    4267.5 cm**-1 (based on SPLINE)
  we =    6488.5 cm**-1 (based on CHEB)
  we =      -nan cm**-1 (based on NUM)

Performing Morse fit ...
Morse-Fit Results:
 Te(adiabatic)   =    1297.6 cm**-1         =  0.161 eV
 d2E/dR**2 (Morse)=      0.272031518 
 d3E/dR**3 (Morse)=     -0.578530289 
 d4E/dR**4 (Morse)=      0.956948374 
 E0               =     -1.168036609 Eh  RMS=4.25e-06
 Re               =   0.78134 Angstroem      =  1.47652 Bohr RMS=2.77e-05)
 De(Morse)        =   7.36493 eV             =  59402.2 cm**-1 RMS=4.91e-06
 D0(Morse)        =   7.12988 eV
 beta             =   0.70890 au          RMS=2.45e-05
 we               =   3791.7 cm**-1
 wexe             =     60.5 cm**-1
 Displacement   =    0.0548 Angstroem      =  0.10356 Bohr


Timings for individual modules:

Sum of individual times         ...       28.425 sec (=   0.474 min)
GTO integral calculation        ...        4.954 sec (=   0.083 min)  17.4 %
SCF iterations                  ...       23.472 sec (=   0.391 min)  82.6 %
                             ****ORCA TERMINATED NORMALLY****
TOTAL RUN TIME: 0 days 0 hours 0 minutes 30 seconds 814 msec
