
                                 *****************
                                 * O   R   C   A *
                                 *****************

                                            #,                                       
                                            ###                                      
                                            ####                                     
                                            #####                                    
                                            ######                                   
                                           ########,                                 
                                     ,,################,,,,,                         
                               ,,#################################,,                 
                          ,,##########################################,,             
                       ,#########################################, ''#####,          
                    ,#############################################,,   '####,        
                  ,##################################################,,,,####,       
                ,###########''''           ''''###############################       
              ,#####''   ,,,,##########,,,,          '''####'''          '####       
            ,##' ,,,,###########################,,,                        '##       
           ' ,,###''''                  '''############,,,                           
         ,,##''                                '''############,,,,        ,,,,,,###''
      ,#''                                            '''#######################'''  
     '                                                          ''''####''''         
             ,#######,   #######,   ,#######,      ##                                
            ,#'     '#,  ##    ##  ,#'     '#,    #''#        ######   ,####,        
            ##       ##  ##   ,#'  ##            #'  '#       #        #'  '#        
            ##       ##  #######   ##           ,######,      #####,   #    #        
            '#,     ,#'  ##    ##  '#,     ,#' ,#      #,         ##   #,  ,#        
             '#######'   ##     ##  '#######'  #'      '#     #####' # '####'        



                  #######################################################
                  #                        -***-                        #
                  #          Department of theory and spectroscopy      #
                  #    Directorship and core code : Frank Neese         #
                  #        Max Planck Institute fuer Kohlenforschung    #
                  #                Kaiser Wilhelm Platz 1               #
                  #                 D-45470 Muelheim/Ruhr               #
                  #                      Germany                        #
                  #                                                     #
                  #                  All rights reserved                #
                  #                        -***-                        #
                  #######################################################


                         Program Version 5.0.2 -  RELEASE  -


 With contributions from (in alphabetic order):
   Daniel Aravena         : Magnetic Suceptibility
   Michael Atanasov       : Ab Initio Ligand Field Theory (pilot matlab implementation)
   Alexander A. Auer      : GIAO ZORA, VPT2 properties, NMR spectrum
   Ute Becker             : Parallelization
   Giovanni Bistoni       : ED, misc. LED, open-shell LED, HFLD
   Martin Brehm           : Molecular dynamics
   Dmytro Bykov           : SCF Hessian
   Vijay G. Chilkuri      : MRCI spin determinant printing, contributions to CSF-ICE
   Dipayan Datta          : RHF DLPNO-CCSD density
   Achintya Kumar Dutta   : EOM-CC, STEOM-CC
   Dmitry Ganyushin       : Spin-Orbit,Spin-Spin,Magnetic field MRCI
   Miquel Garcia          : C-PCM and meta-GGA Hessian, CC/C-PCM, Gaussian charge scheme
   Yang Guo               : DLPNO-NEVPT2, F12-NEVPT2, CIM, IAO-localization
   Andreas Hansen         : Spin unrestricted coupled pair/coupled cluster methods
   Benjamin Helmich-Paris : MC-RPA, TRAH-SCF, COSX integrals
   Lee Huntington         : MR-EOM, pCC
   Robert Izsak           : Overlap fitted RIJCOSX, COSX-SCS-MP3, EOM
   Marcus Kettner         : VPT2
   Christian Kollmar      : KDIIS, OOCD, Brueckner-CCSD(T), CCSD density, CASPT2, CASPT2-K
   Simone Kossmann        : Meta GGA functionals, TD-DFT gradient, OOMP2, MP2 Hessian
   Martin Krupicka        : Initial AUTO-CI
   Lucas Lang             : DCDCAS
   Marvin Lechner         : AUTO-CI (C++ implementation), FIC-MRCC
   Dagmar Lenk            : GEPOL surface, SMD
   Dimitrios Liakos       : Extrapolation schemes; Compound Job, initial MDCI parallelization
   Dimitrios Manganas     : Further ROCIS development; embedding schemes
   Dimitrios Pantazis     : SARC Basis sets
   Anastasios Papadopoulos: AUTO-CI, single reference methods and gradients
   Taras Petrenko         : DFT Hessian,TD-DFT gradient, ASA, ECA, R-Raman, ABS, FL, XAS/XES, NRVS
   Peter Pinski           : DLPNO-MP2, DLPNO-MP2 Gradient
   Christoph Reimann      : Effective Core Potentials
   Marius Retegan         : Local ZFS, SOC
   Christoph Riplinger    : Optimizer, TS searches, QM/MM, DLPNO-CCSD(T), (RO)-DLPNO pert. Triples
   Tobias Risthaus        : Range-separated hybrids, TD-DFT gradient, RPA, STAB
   Michael Roemelt        : Original ROCIS implementation
   Masaaki Saitow         : Open-shell DLPNO-CCSD energy and density
   Barbara Sandhoefer     : DKH picture change effects
   Avijit Sen             : IP-ROCIS
   Kantharuban Sivalingam : CASSCF convergence, NEVPT2, FIC-MRCI
   Bernardo de Souza      : ESD, SOC TD-DFT
   Georgi Stoychev        : AutoAux, RI-MP2 NMR, DLPNO-MP2 response
   Willem Van den Heuvel  : Paramagnetic NMR
   Boris Wezisla          : Elementary symmetry handling
   Frank Wennmohs         : Technical directorship


 We gratefully acknowledge several colleagues who have allowed us to
 interface, adapt or use parts of their codes:
   Stefan Grimme, W. Hujo, H. Kruse, P. Pracht,  : VdW corrections, initial TS optimization,
                  C. Bannwarth, S. Ehlert          DFT functionals, gCP, sTDA/sTD-DF
   Ed Valeev, F. Pavosevic, A. Kumar             : LibInt (2-el integral package), F12 methods
   Garnet Chan, S. Sharma, J. Yang, R. Olivares  : DMRG
   Ulf Ekstrom                                   : XCFun DFT Library
   Mihaly Kallay                                 : mrcc  (arbitrary order and MRCC methods)
   Jiri Pittner, Ondrej Demel                    : Mk-CCSD
   Frank Weinhold                                : gennbo (NPA and NBO analysis)
   Christopher J. Cramer and Donald G. Truhlar   : smd solvation model
   Lars Goerigk                                  : TD-DFT with DH, B97 family of functionals
   V. Asgeirsson, H. Jonsson                     : NEB implementation
   FAccTs GmbH                                   : IRC, NEB, NEB-TS, DLPNO-Multilevel, CI-OPT
                                                   MM, QMMM, 2- and 3-layer-ONIOM, Crystal-QMMM,
                                                   LR-CPCM, SF, NACMEs, symmetry and pop. for TD-DFT,
                                                   nearIR, NL-DFT gradient (VV10), updates on ESD,
                                                   ML-optimized integration grids
   S Lehtola, MJT Oliveira, MAL Marques          : LibXC Library
   Liviu Ungur et al                             : ANISO software


 Your calculation uses the libint2 library for the computation of 2-el integrals
 For citations please refer to: http://libint.valeyev.net

 Your ORCA version has been built with support for libXC version: 5.1.0
 For citations please refer to: https://tddft.org/programs/libxc/

 This ORCA versions uses:
   CBLAS   interface :  Fast vector & matrix operations
   LAPACKE interface :  Fast linear algebra routines
   SCALAPACK package :  Parallel linear algebra routines
   Shared memory     :  Shared parallel matrices
   BLAS/LAPACK       :  OpenBLAS 0.3.15  USE64BITINT DYNAMIC_ARCH NO_AFFINITY SkylakeX SINGLE_THREADED
        Core in use  :  SkylakeX
   Copyright (c) 2011-2014, The OpenBLAS Project




***************************************
The coordinates will be read from file: Mo-HIPT-NH3_0_2_bp86_xtb_lanl2dz_6-31gpol.opt.xyz
***************************************


Preparing ONIOM calculation             ...         cn0926.171726hfi_userinit: assign_context command failed: Device or resource busy
cn0926.171726psmi_context_open: hfi_userinit: failed, trying again (1/3)
cn0926.171726hfi_userinit: assign_context command failed: Device or resource busy
cn0926.171726psmi_context_open: hfi_userinit: failed, trying again (2/3)
cn0926.171726hfi_userinit: assign_context command failed: Device or resource busy
cn0926.171726psmi_context_open: hfi_userinit: failed, trying again (3/3)
cn0926.171726hfi_userinit: assign_context command failed: Device or resource busy
cn0926.171728hfi_userinit: assign_context command failed: Device or resource busy
cn0926.171728psmi_context_open: hfi_userinit: failed, trying again (1/3)
cn0926.171728hfi_userinit: assign_context command failed: Device or resource busy
cn0926.171728psmi_context_open: hfi_userinit: failed, trying again (2/3)
cn0926.171728hfi_userinit: assign_context command failed: Device or resource busy
cn0926.171728psmi_context_open: hfi_userinit: failed, trying again (3/3)
cn0926.171728hfi_userinit: assign_context command failed: Device or resource busy
cn0926.171732hfi_userinit: assign_context command failed: Device or resource busy
cn0926.171732psmi_context_open: hfi_userinit: failed, trying again (1/3)
cn0926.171732hfi_userinit: assign_context command failed: Device or resource busy
cn0926.171732psmi_context_open: hfi_userinit: failed, trying again (2/3)
cn0926.171732hfi_userinit: assign_context command failed: Device or resource busy
cn0926.171732psmi_context_open: hfi_userinit: failed, trying again (3/3)
cn0926.171732hfi_userinit: assign_context command failed: Device or resource busy
cn0926.171742hfi_userinit: assign_context command failed: Device or resource busy
cn0926.171742psmi_context_open: hfi_userinit: failed, trying again (1/3)
cn0926.171742hfi_userinit: assign_context command failed: Device or resource busy
cn0926.171742psmi_context_open: hfi_userinit: failed, trying again (2/3)
cn0926.171742hfi_userinit: assign_context command failed: Device or resource busy
cn0926.171742psmi_context_open: hfi_userinit: failed, trying again (3/3)
cn0926.171742hfi_userinit: assign_context command failed: Device or resource busy
cn0926.171729hfi_userinit: assign_context command failed: Device or resource busy
cn0926.171729psmi_context_open: hfi_userinit: failed, trying again (1/3)
cn0926.171729hfi_userinit: assign_context command failed: Device or resource busy
cn0926.171729psmi_context_open: hfi_userinit: failed, trying again (2/3)
cn0926.171729hfi_userinit: assign_context command failed: Device or resource busy
cn0926.171729psmi_context_open: hfi_userinit: failed, trying again (3/3)
cn0926.171729hfi_userinit: assign_context command failed: Device or resource busy
cn0926.171725hfi_userinit: assign_context command failed: Device or resource busy
cn0926.171727hfi_userinit: assign_context command failed: Device or resource busy
cn0926.171727psmi_context_open: hfi_userinit: failed, trying again (1/3)
cn0926.171727hfi_userinit: assign_context command failed: Device or resource busy
cn0926.171727psmi_context_open: hfi_userinit: failed, trying again (2/3)
cn0926.171727hfi_userinit: assign_context command failed: Device or resource busy
cn0926.171727psmi_context_open: hfi_userinit: failed, trying again (3/3)
cn0926.171727hfi_userinit: assign_context command failed: Device or resource busy
cn0926.171725psmi_context_open: hfi_userinit: failed, trying again (1/3)
cn0926.171725hfi_userinit: assign_context command failed: Device or resource busy
cn0926.171725psmi_context_open: hfi_userinit: failed, trying again (2/3)
cn0926.171725hfi_userinit: assign_context command failed: Device or resource busy
cn0926.171725psmi_context_open: hfi_userinit: failed, trying again (3/3)
cn0926.171725hfi_userinit: assign_context command failed: Device or resource busy
cn0926.171734hfi_userinit: assign_context command failed: Device or resource busy
cn0926.171734psmi_context_open: hfi_userinit: failed, trying again (1/3)
cn0926.171734hfi_userinit: assign_context command failed: Device or resource busy
cn0926.171734psmi_context_open: hfi_userinit: failed, trying again (2/3)
cn0926.171734hfi_userinit: assign_context command failed: Device or resource busy
cn0926.171734psmi_context_open: hfi_userinit: failed, trying again (3/3)
cn0926.171734hfi_userinit: assign_context command failed: Device or resource busy
done
Warning: More than one link atom for QM atom 1. Please be aware of what you are doing!
Warning: More than one link atom for QM atom 2. Please be aware of what you are doing!
Warning: More than one link atom for QM atom 3. Please be aware of what you are doing!
Warning: More than one link atom for QM atom 4. Please be aware of what you are doing!
Warning: More than one link atom for QM atom 4. Please be aware of what you are doing!
cn0926.171848hfi_userinit: assign_context command failed: Device or resource busy
cn0926.171848psmi_context_open: hfi_userinit: failed, trying again (1/3)
cn0926.171848hfi_userinit: assign_context command failed: Device or resource busy
cn0926.171848psmi_context_open: hfi_userinit: failed, trying again (2/3)
cn0926.171848hfi_userinit: assign_context command failed: Device or resource busy
cn0926.171848psmi_context_open: hfi_userinit: failed, trying again (3/3)
cn0926.171848hfi_userinit: assign_context command failed: Device or resource busy
cn0926.171844hfi_userinit: assign_context command failed: Device or resource busy
cn0926.171844psmi_context_open: hfi_userinit: failed, trying again (1/3)
cn0926.171844hfi_userinit: assign_context command failed: Device or resource busy
cn0926.171844psmi_context_open: hfi_userinit: failed, trying again (2/3)
cn0926.171844hfi_userinit: assign_context command failed: Device or resource busy
cn0926.171844psmi_context_open: hfi_userinit: failed, trying again (3/3)
cn0926.171844hfi_userinit: assign_context command failed: Device or resource busy
cn0926.171846hfi_userinit: assign_context command failed: Device or resource busy
cn0926.171846psmi_context_open: hfi_userinit: failed, trying again (1/3)
cn0926.171846hfi_userinit: assign_context command failed: Device or resource busy
cn0926.171846psmi_context_open: hfi_userinit: failed, trying again (2/3)
cn0926.171846hfi_userinit: assign_context command failed: Device or resource busy
cn0926.171846psmi_context_open: hfi_userinit: failed, trying again (3/3)
cn0926.171850hfi_userinit: assign_context command failed: Device or resource busy
cn0926.171850psmi_context_open: hfi_userinit: failed, trying again (1/3)
cn0926.171850hfi_userinit: assign_context command failed: Device or resource busy
cn0926.171850psmi_context_open: hfi_userinit: failed, trying again (2/3)
cn0926.171850hfi_userinit: assign_context command failed: Device or resource busy
cn0926.171850psmi_context_open: hfi_userinit: failed, trying again (3/3)
cn0926.171850hfi_userinit: assign_context command failed: Device or resource busy
cn0926.171846hfi_userinit: assign_context command failed: Device or resource busy
cn0926.171843hfi_userinit: assign_context command failed: Device or resource busy
cn0926.171843psmi_context_open: hfi_userinit: failed, trying again (1/3)
cn0926.171843hfi_userinit: assign_context command failed: Device or resource busy
cn0926.171843psmi_context_open: hfi_userinit: failed, trying again (2/3)
cn0926.171843hfi_userinit: assign_context command failed: Device or resource busy
cn0926.171843psmi_context_open: hfi_userinit: failed, trying again (3/3)
cn0926.171843hfi_userinit: assign_context command failed: Device or resource busy
cn0926.171849hfi_userinit: assign_context command failed: Device or resource busy
cn0926.171849psmi_context_open: hfi_userinit: failed, trying again (1/3)
cn0926.171849hfi_userinit: assign_context command failed: Device or resource busy
cn0926.171849psmi_context_open: hfi_userinit: failed, trying again (2/3)
cn0926.171849hfi_userinit: assign_context command failed: Device or resource busy
cn0926.171849psmi_context_open: hfi_userinit: failed, trying again (3/3)
cn0926.171849hfi_userinit: assign_context command failed: Device or resource busy
cn0926.171845hfi_userinit: assign_context command failed: Device or resource busy
cn0926.171845psmi_context_open: hfi_userinit: failed, trying again (1/3)
cn0926.171845hfi_userinit: assign_context command failed: Device or resource busy
cn0926.171845psmi_context_open: hfi_userinit: failed, trying again (2/3)
cn0926.171845hfi_userinit: assign_context command failed: Device or resource busy
cn0926.171845psmi_context_open: hfi_userinit: failed, trying again (3/3)
cn0926.171845hfi_userinit: assign_context command failed: Device or resource busy
cn0926.171847hfi_userinit: assign_context command failed: Device or resource busy
cn0926.171847psmi_context_open: hfi_userinit: failed, trying again (1/3)
cn0926.171847hfi_userinit: assign_context command failed: Device or resource busy
cn0926.171847psmi_context_open: hfi_userinit: failed, trying again (2/3)
cn0926.171847hfi_userinit: assign_context command failed: Device or resource busy
cn0926.171847psmi_context_open: hfi_userinit: failed, trying again (3/3)
cn0926.171847hfi_userinit: assign_context command failed: Device or resource busy
cn0926.171939hfi_userinit: assign_context command failed: Device or resource busy
cn0926.171939psmi_context_open: hfi_userinit: failed, trying again (1/3)
cn0926.171939hfi_userinit: assign_context command failed: Device or resource busy
cn0926.171939psmi_context_open: hfi_userinit: failed, trying again (2/3)
cn0926.171939hfi_userinit: assign_context command failed: Device or resource busy
cn0926.171939psmi_context_open: hfi_userinit: failed, trying again (3/3)
cn0926.171939hfi_userinit: assign_context command failed: Device or resource busy
cn0926.171947hfi_userinit: assign_context command failed: Device or resource busy
cn0926.171947psmi_context_open: hfi_userinit: failed, trying again (1/3)
cn0926.171947hfi_userinit: assign_context command failed: Device or resource busy
cn0926.171947psmi_context_open: hfi_userinit: failed, trying again (2/3)
cn0926.171947hfi_userinit: assign_context command failed: Device or resource busy
cn0926.171947psmi_context_open: hfi_userinit: failed, trying again (3/3)
cn0926.171947hfi_userinit: assign_context command failed: Device or resource busy
cn0926.171941hfi_userinit: assign_context command failed: Device or resource busy
cn0926.171941psmi_context_open: hfi_userinit: failed, trying again (1/3)
cn0926.171941hfi_userinit: assign_context command failed: Device or resource busy
cn0926.171941psmi_context_open: hfi_userinit: failed, trying again (2/3)
cn0926.171941hfi_userinit: assign_context command failed: Device or resource busy
cn0926.171941psmi_context_open: hfi_userinit: failed, trying again (3/3)
cn0926.171941hfi_userinit: assign_context command failed: Device or resource busy
cn0926.171943hfi_userinit: assign_context command failed: Device or resource busy
cn0926.171943psmi_context_open: hfi_userinit: failed, trying again (1/3)
cn0926.171943hfi_userinit: assign_context command failed: Device or resource busy
cn0926.171943psmi_context_open: hfi_userinit: failed, trying again (2/3)
cn0926.171943hfi_userinit: assign_context command failed: Device or resource busy
cn0926.171943psmi_context_open: hfi_userinit: failed, trying again (3/3)
cn0926.171943hfi_userinit: assign_context command failed: Device or resource busy
cn0926.171942hfi_userinit: assign_context command failed: Device or resource busy
cn0926.171942psmi_context_open: hfi_userinit: failed, trying again (1/3)
cn0926.171942hfi_userinit: assign_context command failed: Device or resource busy
cn0926.171942psmi_context_open: hfi_userinit: failed, trying again (2/3)
cn0926.171942hfi_userinit: assign_context command failed: Device or resource busy
cn0926.171942psmi_context_open: hfi_userinit: failed, trying again (3/3)
cn0926.171942hfi_userinit: assign_context command failed: Device or resource busy
cn0926.171940hfi_userinit: assign_context command failed: Device or resource busy
cn0926.171940psmi_context_open: hfi_userinit: failed, trying again (1/3)
cn0926.171940hfi_userinit: assign_context command failed: Device or resource busy
cn0926.171940psmi_context_open: hfi_userinit: failed, trying again (2/3)
cn0926.171940hfi_userinit: assign_context command failed: Device or resource busy
cn0926.171940psmi_context_open: hfi_userinit: failed, trying again (3/3)
cn0926.171940hfi_userinit: assign_context command failed: Device or resource busy
cn0926.171937hfi_userinit: assign_context command failed: Device or resource busy
cn0926.171937psmi_context_open: hfi_userinit: failed, trying again (1/3)
cn0926.171937hfi_userinit: assign_context command failed: Device or resource busy
cn0926.171937psmi_context_open: hfi_userinit: failed, trying again (2/3)
cn0926.171937hfi_userinit: assign_context command failed: Device or resource busy
cn0926.171937psmi_context_open: hfi_userinit: failed, trying again (3/3)
cn0926.171937hfi_userinit: assign_context command failed: Device or resource busy
cn0926.171946hfi_userinit: assign_context command failed: Device or resource busy
cn0926.171946psmi_context_open: hfi_userinit: failed, trying again (1/3)
cn0926.171946hfi_userinit: assign_context command failed: Device or resource busy
cn0926.171946psmi_context_open: hfi_userinit: failed, trying again (2/3)
cn0926.171946hfi_userinit: assign_context command failed: Device or resource busy
cn0926.171946psmi_context_open: hfi_userinit: failed, trying again (3/3)
cn0926.171946hfi_userinit: assign_context command failed: Device or resource busy
cn0926.172019hfi_userinit: assign_context command failed: Device or resource busy
cn0926.172019psmi_context_open: hfi_userinit: failed, trying again (1/3)
cn0926.172019hfi_userinit: assign_context command failed: Device or resource busy
cn0926.172019psmi_context_open: hfi_userinit: failed, trying again (2/3)
cn0926.172019hfi_userinit: assign_context command failed: Device or resource busy
cn0926.172019psmi_context_open: hfi_userinit: failed, trying again (3/3)
cn0926.172019hfi_userinit: assign_context command failed: Device or resource busy
cn0926.172017hfi_userinit: assign_context command failed: Device or resource busy
cn0926.172017psmi_context_open: hfi_userinit: failed, trying again (1/3)
cn0926.172017hfi_userinit: assign_context command failed: Device or resource busy
cn0926.172017psmi_context_open: hfi_userinit: failed, trying again (2/3)
cn0926.172017hfi_userinit: assign_context command failed: Device or resource busy
cn0926.172017psmi_context_open: hfi_userinit: failed, trying again (3/3)
cn0926.172017hfi_userinit: assign_context command failed: Device or resource busy
cn0926.172014hfi_userinit: assign_context command failed: Device or resource busy
cn0926.172014psmi_context_open: hfi_userinit: failed, trying again (1/3)
cn0926.172014hfi_userinit: assign_context command failed: Device or resource busy
cn0926.172014psmi_context_open: hfi_userinit: failed, trying again (2/3)
cn0926.172014hfi_userinit: assign_context command failed: Device or resource busy
cn0926.172014psmi_context_open: hfi_userinit: failed, trying again (3/3)
cn0926.172014hfi_userinit: assign_context command failed: Device or resource busy
cn0926.172015hfi_userinit: assign_context command failed: Device or resource busy
cn0926.172015psmi_context_open: hfi_userinit: failed, trying again (1/3)
cn0926.172015hfi_userinit: assign_context command failed: Device or resource busy
cn0926.172015psmi_context_open: hfi_userinit: failed, trying again (2/3)
cn0926.172015hfi_userinit: assign_context command failed: Device or resource busy
cn0926.172015psmi_context_open: hfi_userinit: failed, trying again (3/3)
cn0926.172015hfi_userinit: assign_context command failed: Device or resource busy
cn0926.172021hfi_userinit: assign_context command failed: Device or resource busy
cn0926.172021psmi_context_open: hfi_userinit: failed, trying again (1/3)
cn0926.172021hfi_userinit: assign_context command failed: Device or resource busy
cn0926.172021psmi_context_open: hfi_userinit: failed, trying again (2/3)
cn0926.172021hfi_userinit: assign_context command failed: Device or resource busy
cn0926.172021psmi_context_open: hfi_userinit: failed, trying again (3/3)
cn0926.172021hfi_userinit: assign_context command failed: Device or resource busy
cn0926.172018hfi_userinit: assign_context command failed: Device or resource busy
cn0926.172016hfi_userinit: assign_context command failed: Device or resource busy
cn0926.172018psmi_context_open: hfi_userinit: failed, trying again (1/3)
cn0926.172018hfi_userinit: assign_context command failed: Device or resource busy
cn0926.172018psmi_context_open: hfi_userinit: failed, trying again (2/3)
cn0926.172018hfi_userinit: assign_context command failed: Device or resource busy
cn0926.172018psmi_context_open: hfi_userinit: failed, trying again (3/3)
cn0926.172018hfi_userinit: assign_context command failed: Device or resource busy
cn0926.172016psmi_context_open: hfi_userinit: failed, trying again (1/3)
cn0926.172016hfi_userinit: assign_context command failed: Device or resource busy
cn0926.172016psmi_context_open: hfi_userinit: failed, trying again (2/3)
cn0926.172016hfi_userinit: assign_context command failed: Device or resource busy
cn0926.172016psmi_context_open: hfi_userinit: failed, trying again (3/3)
cn0926.172016hfi_userinit: assign_context command failed: Device or resource busy
cn0926.172020hfi_userinit: assign_context command failed: Device or resource busy
cn0926.172020psmi_context_open: hfi_userinit: failed, trying again (1/3)
cn0926.172020hfi_userinit: assign_context command failed: Device or resource busy
cn0926.172020psmi_context_open: hfi_userinit: failed, trying again (2/3)
cn0926.172020hfi_userinit: assign_context command failed: Device or resource busy
cn0926.172020psmi_context_open: hfi_userinit: failed, trying again (3/3)
cn0926.172020hfi_userinit: assign_context command failed: Device or resource busy
================================================================================

cite the ECPs for Mo [Def2-ECP] as follows:
Ce-Yb(ecp-28): M. Dolg, H. Stoll, H.Preuss, J. Chem. Phys., 1989, 90, 1730-1734.
Y-Cd(ecp-28), Hf-Hg(ecp-46): D. Andrae,U. Haeussermann, M. Dolg, H. Stoll, H. Preuss, Theor. Chim. Acta, 1990, 77, 123-141.
In-Sb(ecp-28), Tl-Bi(ecp-46): B. Metz, H. Stoll, M. Dolg, J. Chem. Phys., 2000, 113, 2563-2569.
Te-Xe(ecp-28), Po-Rn(ecp-46): K. A. Peterson, D. Figgen, E. Goll, H. Stoll, M. Dolg, J. Chem. Phys., 2003, 119, 11113-11123.
Rb(ecp-28), Cs(ecp-46): T. Leininger, A. Nicklass, W. Kuechle, H. Stoll, M. Dolg, A. Bergner, Chem. Phys. Lett., 1996, 255, 274-280.
Sr(ecp-28), Ba(ecp-46): M. Kaupp, P. V. Schleyer, H. Stoll and H. Preuss, J. Chem. Phys., 1991, 94, 1360-1366.
La(ecp-46): M. Dolg, H. Stoll, A. Savin, H. Preuss, Theor. Chim. Acta, 1989, 75, 173-194.
Lu(ecp-28): X. Cao, M. Dolg, J. Chem. Phys., 2001, 115, 7348-7355.

ECP parameters for Mo [Def2-ECP] have been obtained from:
TURBOMOLE (7.0.2)

----- Orbital basis set information -----
Your calculation utilizes the basis: def2-SVP
   F. Weigend and R. Ahlrichs, Phys. Chem. Chem. Phys. 7, 3297 (2005).

The basis set includes element-specific modifications.

Your calculation utilizes the basis: def2-TZVPP
   F. Weigend and R. Ahlrichs, Phys. Chem. Chem. Phys. 7, 3297 (2005).

----- AuxJ basis set information -----
Your calculation utilizes the AutoAux generation procedure.
  G. L. Stoychev, A. A. Auer, F. Neese, J. Chem. Theory Comput. 13, 554 (2017)

----- AuxC basis set information -----
Your calculation utilizes the AutoAux generation procedure.
  G. L. Stoychev, A. A. Auer, F. Neese, J. Chem. Theory Comput. 13, 554 (2017)

----- AuxJK basis set information -----
Your calculation utilizes the AutoAux generation procedure.
  G. L. Stoychev, A. A. Auer, F. Neese, J. Chem. Theory Comput. 13, 554 (2017)

================================================================================
                                        WARNINGS
                       Please study these warnings very carefully!
================================================================================

WARNING: Old DensityContainer found on disk!
         Will remove this file - 
         If you want to keep old densities, please start your calculation with a different basename. 


INFO   : the flag for use of the SHARK integral package has been found!

================================================================================
                                       INPUT FILE
================================================================================
NAME = Mo-HIPT-NH3_0_2_casscf-3-2-2_xtb_def2-tzvpp_def2-svp.sp.inp
|  1> !qm/xtb uhf def2-svp tightscf 
|  2> !rijcosx autoaux
|  3> !normalprint
|  4> !pal8
|  5> !moread
|  6> 
|  7> %moinp "Mo-HIPT-NH3_0_2_bp86_xtb_lanl2dz_6-31gpol.opt.gbw"
|  8> 
|  9> %scf
| 10>   maxiter 500
| 11> end
| 12> 
| 13> %basis
| 14>   newgto Mo "def2-tzvpp" end
| 15> end
| 16> 
| 17> %casscf
| 18>   nel 3
| 19>   norb 2
| 20>   nroots 2
| 21>   rel
| 22>     gtensor true
| 23>     dosoc true
| 24>   end
| 25> end
| 26> 
| 27> %qmmm
| 28>   qmatoms { 0 1 2 3 4 5 6 7 8 } end
| 29> end
| 30> 
| 31> *xyzfile 0 2 Mo-HIPT-NH3_0_2_bp86_xtb_lanl2dz_6-31gpol.opt.xyz
| 32> 
| 33>                          ****END OF INPUT****
================================================================================

------------------------------------------------------------------------------

                             **************************
                             *    2-layered ONIOM     *
                             **************************


------------------------------------------------------------------------------




Multiscale model                       ... QM1/QM2
QM2 method                             ... XTB2
Coupling Scheme                        ... subtractive
Embedding Scheme                       ... electrostatic
PrintLevel                             ... 1
Method for determining QM2 charges     ... Hirshfeld
Charge of total system                 ... 0
Charge alteration scheme               ... Charge shifting
Scaling factor for CS scheme           ... 0.06
Gradient projection scheme             ... Lever rule
Scaling factor for QM2 charges         ... 1.00
AutoFF method                          ... XTB2
Point charges in QM calc. from MM atoms... 273
              from charge shift scheme ... 72
Skip double counting of LA terms       ... YES
Skip double counting of LA terms (bond)... YES
Printing trajectories, xyz and allxyz files:
        QMMMRegion                     ... YES
        activeRegion                   ... YES
        activeRegionExt                ... NO
        qmRegion                       ... YES
        qm2Region                      ... NO
Parameter files:
        ORCA Forcefield Filename       ... Mo-HIPT-NH3_0_2_casscf-3-2-2_xtb_def2-tzvpp_def2-svp.sp_L_QM2.ORCAFF.prms.tmp
        QM-LA bond distances Filename  ... Mo-HIPT-NH3_0_2_casscf-3-2-2_xtb_def2-tzvpp_def2-svp.sp.H_DIST.prms.tmp
Forcefield type                        ... ORCA
Size of different subsystems (in atoms):
Size of QMMM System                    ... 282
Size of QM2 Subsystem                  ... 273
Size of QM1 Subsystem                  ... 9
Number of link atoms                   ... 9
Size of QM1 Subsystem plus link atoms  ... 18
Size of region for optimizer           ... 282
        optimized atoms = activeRegion ... 282
        fixed atoms (distance cutoff)  ... 0 ( 1.0)
Composition of different systems (atoms start counting at 0):
QM1 Subsystem                          ...   0   1   2   3   4   5   6   7   8 
Active atoms                           ... All atoms 

                       ****************************
                       * Single Point Calculation *
                       ****************************

                    ************************************                      
                    *       QM/   XTB2 SP Energy       *                      
                    ************************************                      


------------------------------------------------------------------------------
                          XTB2 - FULL SYSTEM                         
------------------------------------------------------------------------------
Running XTB calculation
---------------------------------   --------------------
FINAL SINGLE POINT ENERGY (L-QM2)     -343.804883627190
---------------------------------   --------------------
------------------------------------------------------------------------------
                                  XTB2 - SMALL SYSTEM                         
------------------------------------------------------------------------------
Running XTB calculation
---------------------------------   --------------------
FINAL SINGLE POINT ENERGY (S-QM2)      -22.698057468960
---------------------------------   --------------------
------------------------------------------------------------------------------
                                QM - SMALL SYSTEM                           
------------------------------------------------------------------------------
---------------------------------
CARTESIAN COORDINATES (ANGSTROEM)
---------------------------------
  Mo     7.140024   15.680833   13.524686
  N      5.269191   15.497441   14.232985
  N      8.339520   14.134221   13.829691
  N      8.018435   17.472348   13.329198
  N      7.584799   16.021034   15.576598
  N      6.657662   15.292887   11.316875
  H      7.146575   14.462554   10.950032
  H      6.943093   16.109447   10.755867
  H      5.644386   15.157180   11.185202
  H      5.183039   16.010892   15.114682
  H      4.428699   15.099709   13.808121
  H      8.425567   13.874865   14.830171
  H      8.796648   13.518607   13.146474
  H      8.619590   17.687008   14.129479
  H      7.974760   18.123968   12.543629
  H      6.722599   15.873838   16.110402
  H      8.317714   15.357413   15.884992
  H      7.916429   16.985867   15.670604

----------------------------
CARTESIAN COORDINATES (A.U.)
----------------------------
  NO LB      ZA    FRAG     MASS         X           Y           Z
   0 Mo   14.0000*   0    95.940   13.492689   29.632480   25.557952
   1 N     7.0000    0    14.007    9.957329   29.285920   26.896445
   2 N     7.0000    0    14.007   15.759409   26.709806   26.134329
   3 N     7.0000    0    14.007   15.152646   33.017953   25.188534
   4 N     7.0000    0    14.007   14.333192   30.275367   29.435505
   5 N     7.0000    0    14.007   12.581158   28.899368   21.385794
   6 H     1.0000    0     1.008   13.505069   27.330267   20.692562
   7 H     1.0000    0     1.008   13.120544   30.442444   20.325643
   8 H     1.0000    0     1.008   10.666344   28.642919   21.136969
   9 H     1.0000    0     1.008    9.794525   30.256201   28.562609
  10 H     1.0000    0     1.008    8.369028   28.534314   26.093566
  11 H     1.0000    0     1.008   15.922015   26.219695   28.024961
  12 H     1.0000    0     1.008   16.623256   25.546464   24.843236
  13 H     1.0000    0     1.008   16.288664   33.423602   26.700845
  14 H     1.0000    0     1.008   15.070112   34.249335   23.704023
  15 H     1.0000    0     1.008   12.703872   29.997206   30.444249
  16 H     1.0000    0     1.008   15.718202   29.021305   30.018284
  17 H     1.0000    0     1.008   14.959882   32.098636   29.613150
* core charge reduced due to ECP

--------------------------------
INTERNAL COORDINATES (ANGSTROEM)
--------------------------------
 Mo     0   0   0     0.000000000000     0.00000000     0.00000000
 N      1   0   0     2.008813997121     0.00000000     0.00000000
 N      1   2   0     1.980866142790   116.00037256     0.00000000
 N      1   2   3     2.004831523215   121.60177837   207.80683726
 N      1   2   3     2.126947766989    82.48392741   283.47442940
 N      1   2   3     2.292946287288    97.36216214   102.94733381
 H      6   1   2     1.031048647449   112.27705599   240.99662869
 H      6   1   2     1.031005169460   109.37162522   120.82995983
 H      6   1   2     1.030767713179   110.61410204     2.15496127
 H      2   1   3     1.021023932324   109.64526185   101.06800276
 H      2   1   3     0.964168113307   130.89357776   272.43900970
 H      3   1   2     1.031976520616   113.20519181   303.70714434
 H      3   1   2     0.966135940628   129.42876529   117.07211098
 H      4   1   2     1.020353935695   111.62043226    97.06105352
 H      4   1   2     0.962890473149   128.77275186   273.33264280
 H      5   1   2     1.033713188136   107.67589946     5.20835452
 H      5   1   2     1.045391916837   109.43602285   125.21302159
 H      5   1   2     1.033249801646   107.86808323   245.23929119

---------------------------
INTERNAL COORDINATES (A.U.)
---------------------------
 Mo     0   0   0     0.000000000000     0.00000000     0.00000000
 N      1   0   0     3.796108308547     0.00000000     0.00000000
 N      1   2   0     3.743294517830   116.00037256     0.00000000
 N      1   2   3     3.788582523528   121.60177837   207.80683726
 N      1   2   3     4.019348780765    82.48392741   283.47442940
 N      1   2   3     4.333040522766    97.36216214   102.94733381
 H      6   1   2     1.948399574429   112.27705599   240.99662869
 H      6   1   2     1.948317412936   109.37162522   120.82995983
 H      6   1   2     1.947868685597   110.61410204     2.15496127
 H      2   1   3     1.929455608271   109.64526185   101.06800276
 H      2   1   3     1.822013681210   130.89357776   272.43900970
 H      3   1   2     1.950153000602   113.20519181   303.70714434
 H      3   1   2     1.825732335925   129.42876529   117.07211098
 H      4   1   2     1.928189498132   111.62043226    97.06105352
 H      4   1   2     1.819599291214   128.77275186   273.33264280
 H      5   1   2     1.953434826600   107.67589946     5.20835452
 H      5   1   2     1.975504425436   109.43602285   125.21302159
 H      5   1   2     1.952559153040   107.86808323   245.23929119

---------------------
BASIS SET INFORMATION
---------------------
There are 3 groups of distinct atoms

 Group   1 Type Mo  : 7s7p5d2f1g contracted to 6s4p3d2f1g pattern {211111/4111/311/11/1}
 Group   2 Type N   : 7s4p1d contracted to 3s2p1d pattern {511/31/1}
 Group   3 Type H   : 4s1p contracted to 2s1p pattern {31/1}

Atom   0Mo   basis set group =>   1
Atom   1N    basis set group =>   2
Atom   2N    basis set group =>   2
Atom   3N    basis set group =>   2
Atom   4N    basis set group =>   2
Atom   5N    basis set group =>   2
Atom   6H    basis set group =>   3
Atom   7H    basis set group =>   3
Atom   8H    basis set group =>   3
Atom   9H    basis set group =>   3
Atom  10H    basis set group =>   3
Atom  11H    basis set group =>   3
Atom  12H    basis set group =>   3
Atom  13H    basis set group =>   3
Atom  14H    basis set group =>   3
Atom  15H    basis set group =>   3
Atom  16H    basis set group =>   3
Atom  17H    basis set group =>   3
---------------------------------
AUXILIARY/J BASIS SET INFORMATION
---------------------------------
There are 3 groups of distinct atoms

 Group   1 Type Mo  : 12s11p11d9f9g3h3i contracted to 12s11p11d9f9g3h3i pattern {111111111111/11111111111/11111111111/111111111/111111111/111/111}
 Group   2 Type N   : 14s11p10d2f contracted to 14s11p10d2f pattern {11111111111111/11111111111/1111111111/11}
 Group   3 Type H   : 9s2p1d contracted to 9s2p1d pattern {111111111/11/1}

Atom   0Mo   basis set group =>   1
Atom   1N    basis set group =>   2
Atom   2N    basis set group =>   2
Atom   3N    basis set group =>   2
Atom   4N    basis set group =>   2
Atom   5N    basis set group =>   2
Atom   6H    basis set group =>   3
Atom   7H    basis set group =>   3
Atom   8H    basis set group =>   3
Atom   9H    basis set group =>   3
Atom  10H    basis set group =>   3
Atom  11H    basis set group =>   3
Atom  12H    basis set group =>   3
Atom  13H    basis set group =>   3
Atom  14H    basis set group =>   3
Atom  15H    basis set group =>   3
Atom  16H    basis set group =>   3
Atom  17H    basis set group =>   3
---------------------------------
AUXILIARY/C BASIS SET INFORMATION
---------------------------------
There are 3 groups of distinct atoms

 Group   1 Type Mo  : 12s11p11d9f9g3h3i contracted to 12s11p11d9f9g3h3i pattern {111111111111/11111111111/11111111111/111111111/111111111/111/111}
 Group   2 Type N   : 14s11p10d2f contracted to 14s11p10d2f pattern {11111111111111/11111111111/1111111111/11}
 Group   3 Type H   : 9s2p1d contracted to 9s2p1d pattern {111111111/11/1}

Atom   0Mo   basis set group =>   1
Atom   1N    basis set group =>   2
Atom   2N    basis set group =>   2
Atom   3N    basis set group =>   2
Atom   4N    basis set group =>   2
Atom   5N    basis set group =>   2
Atom   6H    basis set group =>   3
Atom   7H    basis set group =>   3
Atom   8H    basis set group =>   3
Atom   9H    basis set group =>   3
Atom  10H    basis set group =>   3
Atom  11H    basis set group =>   3
Atom  12H    basis set group =>   3
Atom  13H    basis set group =>   3
Atom  14H    basis set group =>   3
Atom  15H    basis set group =>   3
Atom  16H    basis set group =>   3
Atom  17H    basis set group =>   3
----------------------------------
AUXILIARY/JK BASIS SET INFORMATION
----------------------------------
There are 3 groups of distinct atoms

 Group   1 Type Mo  : 12s11p11d9f9g3h3i contracted to 12s11p11d9f9g3h3i pattern {111111111111/11111111111/11111111111/111111111/111111111/111/111}
 Group   2 Type N   : 14s11p10d2f contracted to 14s11p10d2f pattern {11111111111111/11111111111/1111111111/11}
 Group   3 Type H   : 9s2p1d contracted to 9s2p1d pattern {111111111/11/1}

Atom   0Mo   basis set group =>   1
Atom   1N    basis set group =>   2
Atom   2N    basis set group =>   2
Atom   3N    basis set group =>   2
Atom   4N    basis set group =>   2
Atom   5N    basis set group =>   2
Atom   6H    basis set group =>   3
Atom   7H    basis set group =>   3
Atom   8H    basis set group =>   3
Atom   9H    basis set group =>   3
Atom  10H    basis set group =>   3
Atom  11H    basis set group =>   3
Atom  12H    basis set group =>   3
Atom  13H    basis set group =>   3
Atom  14H    basis set group =>   3
Atom  15H    basis set group =>   3
Atom  16H    basis set group =>   3
Atom  17H    basis set group =>   3
-------------------------
ECP PARAMETER INFORMATION
-------------------------

 Group 1, Type Mo ECP Def2-ECP (replacing 28 core electrons, lmax=3)

Atom   0Mo   ECP group =>   1

cn0926.172111hfi_userinit: assign_context command failed: Device or resource busy
cn0926.172111psmi_context_open: hfi_userinit: failed, trying again (1/3)
cn0926.172111hfi_userinit: assign_context command failed: Device or resource busy
cn0926.172111psmi_context_open: hfi_userinit: failed, trying again (2/3)
cn0926.172111hfi_userinit: assign_context command failed: Device or resource busy
cn0926.172111psmi_context_open: hfi_userinit: failed, trying again (3/3)
cn0926.172111hfi_userinit: assign_context command failed: Device or resource busy
cn0926.172115hfi_userinit: assign_context command failed: Device or resource busy
cn0926.172115psmi_context_open: hfi_userinit: failed, trying again (1/3)
cn0926.172115hfi_userinit: assign_context command failed: Device or resource busy
cn0926.172115psmi_context_open: hfi_userinit: failed, trying again (2/3)
cn0926.172115hfi_userinit: assign_context command failed: Device or resource busy
cn0926.172115psmi_context_open: hfi_userinit: failed, trying again (3/3)
cn0926.172115hfi_userinit: assign_context command failed: Device or resource busy
cn0926.172113hfi_userinit: assign_context command failed: Device or resource busy
cn0926.172113psmi_context_open: hfi_userinit: failed, trying again (1/3)
cn0926.172113hfi_userinit: assign_context command failed: Device or resource busy
cn0926.172113psmi_context_open: hfi_userinit: failed, trying again (2/3)
cn0926.172113hfi_userinit: assign_context command failed: Device or resource busy
cn0926.172113psmi_context_open: hfi_userinit: failed, trying again (3/3)
cn0926.172113hfi_userinit: assign_context command failed: Device or resource busy
cn0926.172119hfi_userinit: assign_context command failed: Device or resource busy
cn0926.172119psmi_context_open: hfi_userinit: failed, trying again (1/3)
cn0926.172119hfi_userinit: assign_context command failed: Device or resource busy
cn0926.172119psmi_context_open: hfi_userinit: failed, trying again (2/3)
cn0926.172119hfi_userinit: assign_context command failed: Device or resource busy
cn0926.172119psmi_context_open: hfi_userinit: failed, trying again (3/3)
cn0926.172119hfi_userinit: assign_context command failed: Device or resource busy
cn0926.172116hfi_userinit: assign_context command failed: Device or resource busy
cn0926.172116psmi_context_open: hfi_userinit: failed, trying again (1/3)
cn0926.172116hfi_userinit: assign_context command failed: Device or resource busy
cn0926.172116psmi_context_open: hfi_userinit: failed, trying again (2/3)
cn0926.172116hfi_userinit: assign_context command failed: Device or resource busy
cn0926.172116psmi_context_open: hfi_userinit: failed, trying again (3/3)
cn0926.172116hfi_userinit: assign_context command failed: Device or resource busy
cn0926.172110hfi_userinit: assign_context command failed: Device or resource busy
cn0926.172110psmi_context_open: hfi_userinit: failed, trying again (1/3)
cn0926.172110hfi_userinit: assign_context command failed: Device or resource busy
cn0926.172110psmi_context_open: hfi_userinit: failed, trying again (2/3)
cn0926.172110hfi_userinit: assign_context command failed: Device or resource busy
cn0926.172110psmi_context_open: hfi_userinit: failed, trying again (3/3)
cn0926.172110hfi_userinit: assign_context command failed: Device or resource busy
cn0926.172112hfi_userinit: assign_context command failed: Device or resource busy
cn0926.172114hfi_userinit: assign_context command failed: Device or resource busy
cn0926.172112psmi_context_open: hfi_userinit: failed, trying again (1/3)
cn0926.172112hfi_userinit: assign_context command failed: Device or resource busy
cn0926.172112psmi_context_open: hfi_userinit: failed, trying again (2/3)
cn0926.172112hfi_userinit: assign_context command failed: Device or resource busy
cn0926.172112psmi_context_open: hfi_userinit: failed, trying again (3/3)
cn0926.172112hfi_userinit: assign_context command failed: Device or resource busy
cn0926.172114psmi_context_open: hfi_userinit: failed, trying again (1/3)
cn0926.172114hfi_userinit: assign_context command failed: Device or resource busy
cn0926.172114psmi_context_open: hfi_userinit: failed, trying again (2/3)
cn0926.172114hfi_userinit: assign_context command failed: Device or resource busy
cn0926.172114psmi_context_open: hfi_userinit: failed, trying again (3/3)
cn0926.172114hfi_userinit: assign_context command failed: Device or resource busy


           ************************************************************
           *        Program running with 8 parallel MPI-processes     *
           *              working on a common directory               *
           ************************************************************
------------------------------------------------------------------------------
                           ORCA GTO INTEGRAL CALCULATION
                           -- RI-GTO INTEGRALS CHOSEN --
------------------------------------------------------------------------------
------------------------------------------------------------------------------
                   ___                                                        
                  /   \      - P O W E R E D   B Y -                         
                 /     \                                                     
                 |  |  |   _    _      __       _____    __    __             
                 |  |  |  | |  | |    /  \     |  _  \  |  |  /  |          
                  \  \/   | |  | |   /    \    | | | |  |  | /  /          
                 / \  \   | |__| |  /  /\  \   | |_| |  |  |/  /          
                |  |  |   |  __  | /  /__\  \  |    /   |      \           
                |  |  |   | |  | | |   __   |  |    \   |  |\   \          
                \     /   | |  | | |  |  |  |  | |\  \  |  | \   \       
                 \___/    |_|  |_| |__|  |__|  |_| \__\ |__|  \__/        
                                                                              
                      - O R C A' S   B I G   F R I E N D -                    
                                      &                                       
                       - I N T E G R A L  F E E D E R -                       
                                                                              
 v1 FN, 2020, v2 2021                                                         
------------------------------------------------------------------------------


Reading SHARK input file Mo-HIPT-NH3_0_2_casscf-3-2-2_xtb_def2-tzvpp_def2-svp.sp.SHARKINP.tmp ... SHARK General Contraction Test:  Segmented basis detected
   -> Pre-screening matrix *NOT* found on disk - recalculating with NShells=82
   -> Leaving CheckPreScreeningMatrix
ok
----------------------
SHARK INTEGRAL PACKAGE
----------------------

Number of atoms                             ...     18
Number of basis functions                   ...    186
Number of shells                            ...     82
Maximum angular momentum                    ...      4
Integral batch strategy                     ... SHARK/LIBINT Hybrid
RI-J (if used) integral strategy            ... SPLIT-RIJ (Revised 2003 algorithm where possible)
Printlevel                                  ...      2
Contraction scheme used                     ... SEGMENTED contraction
Coulomb Range Separation                    ... NOT USED
Exchange Range Separation                   ... NOT USED
Finite Nucleus Model                        ... NOT USED
Auxiliary Coulomb fitting basis             ... AVAILABLE
   # of basis functions in Aux-J            ...   1111
   # of shells in Aux-J                     ...    387
   Maximum angular momentum in Aux-J        ...      6
Auxiliary J/K fitting basis                 ... AVAILABLE
   # of basis functions in Aux-JK           ...   1111
   # of shells in Aux-JK                    ...    387
   Maximum angular momentum in Aux-JK       ...      6
Auxiliary Correlation fitting basis         ... AVAILABLE
   # of basis functions in Aux-C            ...   1111
   # of shells in Aux-C                     ...    387
   Maximum angular momentum in Aux-C        ...      6
Auxiliary 'external' fitting basis          ... NOT available
Integral threshold                          ...     2.500000e-11
Primitive cut-off                           ...     2.500000e-12
Primitive pair pre-selection threshold      ...     2.500000e-12

Calculating pre-screening integrals         ... done (  0.1 sec) Dimension = 82
Organizing shell pair data                  ... done (  0.1 sec)
Shell pair information
Total number of shell pairs                 ...      3403
Shell pairs after pre-screening             ...      3264
Total number of primitive shell pairs       ...     10264
Primitive shell pairs kept                  ...      7475
          la=0 lb=0:   1002 shell pairs
          la=1 lb=0:   1112 shell pairs
          la=1 lb=1:    324 shell pairs
          la=2 lb=0:    346 shell pairs
          la=2 lb=1:    202 shell pairs
          la=2 lb=2:     35 shell pairs
          la=3 lb=0:     90 shell pairs
          la=3 lb=1:     52 shell pairs
          la=3 lb=2:     16 shell pairs
          la=3 lb=3:      3 shell pairs
          la=4 lb=0:     45 shell pairs
          la=4 lb=1:     26 shell pairs
          la=4 lb=2:      8 shell pairs
          la=4 lb=3:      2 shell pairs
          la=4 lb=4:      1 shell pairs

Reading point charge file                   ... ok (345 point charges)
Calculating one electron integrals          ... done (  0.1 sec)
Calculating ECP integrals                   ... done (  1.2 sec)
Calculating RI/J V-Matrix + Cholesky decomp.... done (  0.8 sec)
Calculating RI/JK V-Matrix + Cholesky decomp... done (  0.7 sec)
Calculating RI/C V-Matrix + Cholesky decomp.... done (  0.5 sec)
Calculating Nuclear repulsion               ... (+Point charges) done (  0.0 sec) ENN=    345.567947468746 Eh

SHARK setup successfully completed in   4.4 seconds

Maximum memory used throughout the entire GTOINT-calculation: 33.1 MB
ENUC WAS=  0.000000000
ENUC IS =  0.000000000
cn0926.172196hfi_userinit: assign_context command failed: Device or resource busy
cn0926.172196psmi_context_open: hfi_userinit: failed, trying again (1/3)
cn0926.172196hfi_userinit: assign_context command failed: Device or resource busy
cn0926.172196psmi_context_open: hfi_userinit: failed, trying again (2/3)
cn0926.172196hfi_userinit: assign_context command failed: Device or resource busy
cn0926.172196psmi_context_open: hfi_userinit: failed, trying again (3/3)
cn0926.172196hfi_userinit: assign_context command failed: Device or resource busy
cn0926.172205hfi_userinit: assign_context command failed: Device or resource busy
cn0926.172205psmi_context_open: hfi_userinit: failed, trying again (1/3)
cn0926.172205hfi_userinit: assign_context command failed: Device or resource busy
cn0926.172205psmi_context_open: hfi_userinit: failed, trying again (2/3)
cn0926.172205hfi_userinit: assign_context command failed: Device or resource busy
cn0926.172205psmi_context_open: hfi_userinit: failed, trying again (3/3)
cn0926.172205hfi_userinit: assign_context command failed: Device or resource busy
cn0926.172198hfi_userinit: assign_context command failed: Device or resource busy
cn0926.172198psmi_context_open: hfi_userinit: failed, trying again (1/3)
cn0926.172198hfi_userinit: assign_context command failed: Device or resource busy
cn0926.172198psmi_context_open: hfi_userinit: failed, trying again (2/3)
cn0926.172198hfi_userinit: assign_context command failed: Device or resource busy
cn0926.172198psmi_context_open: hfi_userinit: failed, trying again (3/3)
cn0926.172198hfi_userinit: assign_context command failed: Device or resource busy
cn0926.172201hfi_userinit: assign_context command failed: Device or resource busy
cn0926.172201psmi_context_open: hfi_userinit: failed, trying again (1/3)
cn0926.172201hfi_userinit: assign_context command failed: Device or resource busy
cn0926.172201psmi_context_open: hfi_userinit: failed, trying again (2/3)
cn0926.172201hfi_userinit: assign_context command failed: Device or resource busy
cn0926.172201psmi_context_open: hfi_userinit: failed, trying again (3/3)
cn0926.172201hfi_userinit: assign_context command failed: Device or resource busy
cn0926.172195hfi_userinit: assign_context command failed: Device or resource busy
cn0926.172195psmi_context_open: hfi_userinit: failed, trying again (1/3)
cn0926.172195hfi_userinit: assign_context command failed: Device or resource busy
cn0926.172195psmi_context_open: hfi_userinit: failed, trying again (2/3)
cn0926.172195hfi_userinit: assign_context command failed: Device or resource busy
cn0926.172195psmi_context_open: hfi_userinit: failed, trying again (3/3)
cn0926.172195hfi_userinit: assign_context command failed: Device or resource busy
cn0926.172197hfi_userinit: assign_context command failed: Device or resource busy
cn0926.172197psmi_context_open: hfi_userinit: failed, trying again (1/3)
cn0926.172197hfi_userinit: assign_context command failed: Device or resource busy
cn0926.172197psmi_context_open: hfi_userinit: failed, trying again (2/3)
cn0926.172197hfi_userinit: assign_context command failed: Device or resource busy
cn0926.172197psmi_context_open: hfi_userinit: failed, trying again (3/3)
cn0926.172197hfi_userinit: assign_context command failed: Device or resource busy
cn0926.172199hfi_userinit: assign_context command failed: Device or resource busy
cn0926.172199psmi_context_open: hfi_userinit: failed, trying again (1/3)
cn0926.172199hfi_userinit: assign_context command failed: Device or resource busy
cn0926.172199psmi_context_open: hfi_userinit: failed, trying again (2/3)
cn0926.172199hfi_userinit: assign_context command failed: Device or resource busy
cn0926.172199psmi_context_open: hfi_userinit: failed, trying again (3/3)
cn0926.172199hfi_userinit: assign_context command failed: Device or resource busy
cn0926.172203hfi_userinit: assign_context command failed: Device or resource busy
cn0926.172203psmi_context_open: hfi_userinit: failed, trying again (1/3)
cn0926.172203hfi_userinit: assign_context command failed: Device or resource busy
cn0926.172203psmi_context_open: hfi_userinit: failed, trying again (2/3)
cn0926.172203hfi_userinit: assign_context command failed: Device or resource busy
cn0926.172203psmi_context_open: hfi_userinit: failed, trying again (3/3)
cn0926.172203hfi_userinit: assign_context command failed: Device or resource busy


           ************************************************************
           *        Program running with 8 parallel MPI-processes     *
           *              working on a common directory               *
           ************************************************************
-------------------------------------------------------------------------------
                                 ORCA SCF
-------------------------------------------------------------------------------

------------
SCF SETTINGS
------------
Hamiltonian:
 Ab initio Hamiltonian  Method          .... Hartree-Fock(GTOs)
 RI-approximation to the Coulomb term is turned on
   Number of AuxJ basis functions       .... 1111
   RIJ-COSX (HFX calculated with COS-X)).... on


General Settings:
 Integral files         IntName         .... Mo-HIPT-NH3_0_2_casscf-3-2-2_xtb_def2-tzvpp_def2-svp.sp
 Hartree-Fock type      HFTyp           .... CASSCF
 Total Charge           Charge          ....    0
 Multiplicity           Mult            ....    2
 Number of Electrons    NEL             ....   61
 Basis Dimension        Dim             ....  186
 Nuclear Repulsion      ENuc            ....    345.5679474687 Eh


Diagonalization of the overlap matrix:
Smallest eigenvalue                        ... 3.227e-03
Time for diagonalization                   ...    0.025 sec
Threshold for overlap eigenvalues          ... 1.000e-08
Number of eigenvalues below threshold      ... 0
Time for construction of square roots      ...    0.072 sec
Total time needed                          ...    0.125 sec

SHARK General Contraction Test:  Segmented basis detected
   -> Pre-screening matrix found on disk - Trying to read with NShells=82
   -> Passing Pre-screening matrix on to SHARK ...ok
   -> Leaving CheckPreScreeningMatrix
----------------------
SHARK INTEGRAL PACKAGE
----------------------

Number of atoms                             ...     18
Number of basis functions                   ...    186
Number of shells                            ...     82
Maximum angular momentum                    ...      4
Integral batch strategy                     ... SHARK/LIBINT Hybrid
RI-J (if used) integral strategy            ... SPLIT-RIJ (Revised 2003 algorithm where possible)
Printlevel                                  ...      2
Contraction scheme used                     ... SEGMENTED contraction
Coulomb Range Separation                    ... NOT USED
Exchange Range Separation                   ... NOT USED
Finite Nucleus Model                        ... NOT USED
Auxiliary Coulomb fitting basis             ... AVAILABLE
   # of basis functions in Aux-J            ...   1111
   # of shells in Aux-J                     ...    387
   Maximum angular momentum in Aux-J        ...      6
Auxiliary J/K fitting basis                 ... AVAILABLE
   # of basis functions in Aux-JK           ...   1111
   # of shells in Aux-JK                    ...    387
   Maximum angular momentum in Aux-JK       ...      6
Auxiliary Correlation fitting basis         ... AVAILABLE
   # of basis functions in Aux-C            ...   1111
   # of shells in Aux-C                     ...    387
   Maximum angular momentum in Aux-C        ...      6
Auxiliary 'external' fitting basis          ... NOT available
Integral threshold                          ...     2.500000e-11
Primitive cut-off                           ...     2.500000e-12
Primitive pair pre-selection threshold      ...     2.500000e-12

---------------------
INITIAL GUESS: MOREAD
---------------------
Guess MOs are being read from file: Mo-HIPT-NH3_0_2_bp86_xtb_lanl2dz_6-31gpol.opt.gbw
Input Geometry matches current geometry (good)
Atom 0: N(Shells)= 16 and 8 - projection required
Input basis set needs projection
NBasis(read)= 91
NBasis(calc)= 186
Basis set overlap was calculated
Using GuessMode=CMatrix for the initial guess
Initial orthogonal set was formed
CASSCF - fitting 2 shells:
   closed-shell contains  29 orbitals (  0 ...  28)
   active space contains   2 orbitals ( 29 ...  30)
Virtual orbitals were projected
Gram-Schmidt orthogonalization of all MOs with pivot on actives
Initial density was built
Canonicalizing active space vectors CAS(3,2) {29-30} C(186,186) Cact Ract BOVL(91,186) COVL Diag BackTrafo Restore
Active space vectors have been canonicalized
                      ------------------
                      INITIAL GUESS DONE (   0.3 sec)
                      ------------------
--------------------
COSX GRID GENERATION
--------------------

GRIDX 1
-------
General Integration Accuracy     IntAcc      ... 3.816
Radial Grid Type                 RadialGrid  ... OptM3 with GC (2021)
Angular Grid (max. ang.)         AngularGrid ... 1 (Lebedev-50)
Angular grid pruning method      GridPruning ... 4 (adaptive)
Weight generation scheme         WeightScheme... Becke
Basis function cutoff            BFCut       ... 1.0000e-11
Integration weight cutoff        WCut        ... 1.0000e-14
Angular grids for H and He will be reduced by one unit
Partially contracted basis set               ... on
Rotationally invariant grid construction     ... off

Total number of grid points                  ...    10007
Total number of batches                      ...      166
Average number of points per batch           ...       60
Average number of grid points per atom       ...      556
UseSFitting                                  ... on

GRIDX 2
-------
General Integration Accuracy     IntAcc      ... 4.020
Radial Grid Type                 RadialGrid  ... OptM3 with GC (2021)
Angular Grid (max. ang.)         AngularGrid ... 2 (Lebedev-110)
Angular grid pruning method      GridPruning ... 4 (adaptive)
Weight generation scheme         WeightScheme... Becke
Basis function cutoff            BFCut       ... 1.0000e-11
Integration weight cutoff        WCut        ... 1.0000e-14
Angular grids for H and He will be reduced by one unit
Partially contracted basis set               ... on
Rotationally invariant grid construction     ... off

Total number of grid points                  ...    20947
Total number of batches                      ...      337
Average number of points per batch           ...       62
Average number of grid points per atom       ...     1164
UseSFitting                                  ... on

GRIDX 3
-------
General Integration Accuracy     IntAcc      ... 4.338
Radial Grid Type                 RadialGrid  ... OptM3 with GC (2021)
Angular Grid (max. ang.)         AngularGrid ... 3 (Lebedev-194)
Angular grid pruning method      GridPruning ... 4 (adaptive)
Weight generation scheme         WeightScheme... Becke
Basis function cutoff            BFCut       ... 1.0000e-11
Integration weight cutoff        WCut        ... 1.0000e-14
Angular grids for H and He will be reduced by one unit
Partially contracted basis set               ... on
Rotationally invariant grid construction     ... off

Total number of grid points                  ...    44955
Total number of batches                      ...      712
Average number of points per batch           ...       63
Average number of grid points per atom       ...     2498
UseSFitting                                  ... on

Time for X-Grid setup             =    1.249 sec



 ... the calculation is a CASSCF calculation -I'm leaving here GOOD LUCK!!!

cn0926.172280hfi_userinit: assign_context command failed: Device or resource busy
cn0926.172280psmi_context_open: hfi_userinit: failed, trying again (1/3)
cn0926.172280hfi_userinit: assign_context command failed: Device or resource busy
cn0926.172280psmi_context_open: hfi_userinit: failed, trying again (2/3)
cn0926.172280hfi_userinit: assign_context command failed: Device or resource busy
cn0926.172280psmi_context_open: hfi_userinit: failed, trying again (3/3)
cn0926.172280hfi_userinit: assign_context command failed: Device or resource busy
cn0926.172278hfi_userinit: assign_context command failed: Device or resource busy
cn0926.172278psmi_context_open: hfi_userinit: failed, trying again (1/3)
cn0926.172278hfi_userinit: assign_context command failed: Device or resource busy
cn0926.172278psmi_context_open: hfi_userinit: failed, trying again (2/3)
cn0926.172278hfi_userinit: assign_context command failed: Device or resource busy
cn0926.172278psmi_context_open: hfi_userinit: failed, trying again (3/3)
cn0926.172278hfi_userinit: assign_context command failed: Device or resource busy
cn0926.172285hfi_userinit: assign_context command failed: Device or resource busy
cn0926.172285psmi_context_open: hfi_userinit: failed, trying again (1/3)
cn0926.172285hfi_userinit: assign_context command failed: Device or resource busy
cn0926.172285psmi_context_open: hfi_userinit: failed, trying again (2/3)
cn0926.172285hfi_userinit: assign_context command failed: Device or resource busy
cn0926.172285psmi_context_open: hfi_userinit: failed, trying again (3/3)
cn0926.172285hfi_userinit: assign_context command failed: Device or resource busy
cn0926.172282hfi_userinit: assign_context command failed: Device or resource busy
cn0926.172282psmi_context_open: hfi_userinit: failed, trying again (1/3)
cn0926.172282hfi_userinit: assign_context command failed: Device or resource busy
cn0926.172282psmi_context_open: hfi_userinit: failed, trying again (2/3)
cn0926.172282hfi_userinit: assign_context command failed: Device or resource busy
cn0926.172282psmi_context_open: hfi_userinit: failed, trying again (3/3)
cn0926.172282hfi_userinit: assign_context command failed: Device or resource busy
cn0926.172277hfi_userinit: assign_context command failed: Device or resource busy
cn0926.172279hfi_userinit: assign_context command failed: Device or resource busy
cn0926.172277psmi_context_open: hfi_userinit: failed, trying again (1/3)
cn0926.172277hfi_userinit: assign_context command failed: Device or resource busy
cn0926.172277psmi_context_open: hfi_userinit: failed, trying again (2/3)
cn0926.172277hfi_userinit: assign_context command failed: Device or resource busy
cn0926.172277psmi_context_open: hfi_userinit: failed, trying again (3/3)
cn0926.172277hfi_userinit: assign_context command failed: Device or resource busy
cn0926.172279psmi_context_open: hfi_userinit: failed, trying again (1/3)
cn0926.172279hfi_userinit: assign_context command failed: Device or resource busy
cn0926.172279psmi_context_open: hfi_userinit: failed, trying again (2/3)
cn0926.172279hfi_userinit: assign_context command failed: Device or resource busy
cn0926.172279psmi_context_open: hfi_userinit: failed, trying again (3/3)
cn0926.172279hfi_userinit: assign_context command failed: Device or resource busy
cn0926.172283hfi_userinit: assign_context command failed: Device or resource busy
cn0926.172281hfi_userinit: assign_context command failed: Device or resource busy
cn0926.172283psmi_context_open: hfi_userinit: failed, trying again (1/3)
cn0926.172283hfi_userinit: assign_context command failed: Device or resource busy
cn0926.172283psmi_context_open: hfi_userinit: failed, trying again (2/3)
cn0926.172283hfi_userinit: assign_context command failed: Device or resource busy
cn0926.172283psmi_context_open: hfi_userinit: failed, trying again (3/3)
cn0926.172283hfi_userinit: assign_context command failed: Device or resource busy
cn0926.172281psmi_context_open: hfi_userinit: failed, trying again (1/3)
cn0926.172281hfi_userinit: assign_context command failed: Device or resource busy
cn0926.172281psmi_context_open: hfi_userinit: failed, trying again (2/3)
cn0926.172281hfi_userinit: assign_context command failed: Device or resource busy
cn0926.172281psmi_context_open: hfi_userinit: failed, trying again (3/3)
cn0926.172281hfi_userinit: assign_context command failed: Device or resource busy


           ************************************************************
           *        Program running with 8 parallel MPI-processes     *
           *              working on a common directory               *
           ************************************************************
-------------------------------------------------------------------------------
                              ORCA-CASSCF
-------------------------------------------------------------------------------

Setting up the integral package       ... SHARK General Contraction Test:  Segmented basis detected
   -> Pre-screening matrix found on disk - Trying to read with NShells=82
   -> Passing Pre-screening matrix on to SHARK ...ok
   -> Leaving CheckPreScreeningMatrix
----------------------
SHARK INTEGRAL PACKAGE
----------------------

Number of atoms                             ...     18
Number of basis functions                   ...    186
Number of shells                            ...     82
Maximum angular momentum                    ...      4
Integral batch strategy                     ... SHARK/LIBINT Hybrid
RI-J (if used) integral strategy            ... SPLIT-RIJ (Revised 2003 algorithm where possible)
Printlevel                                  ...      2
Contraction scheme used                     ... SEGMENTED contraction
Coulomb Range Separation                    ... NOT USED
Exchange Range Separation                   ... NOT USED
Finite Nucleus Model                        ... NOT USED
Auxiliary Coulomb fitting basis             ... AVAILABLE
   # of basis functions in Aux-J            ...   1111
   # of shells in Aux-J                     ...    387
   Maximum angular momentum in Aux-J        ...      6
Auxiliary J/K fitting basis                 ... AVAILABLE
   # of basis functions in Aux-JK           ...   1111
   # of shells in Aux-JK                    ...    387
   Maximum angular momentum in Aux-JK       ...      6
Auxiliary Correlation fitting basis         ... AVAILABLE
   # of basis functions in Aux-C            ...   1111
   # of shells in Aux-C                     ...    387
   Maximum angular momentum in Aux-C        ...      6
Auxiliary 'external' fitting basis          ... NOT available
Integral threshold                          ...     2.500000e-11
Primitive cut-off                           ...     2.500000e-12
Primitive pair pre-selection threshold      ...     2.500000e-12

done
Setting up the integral package (RI)  ... done
Building the CAS space                ... done (2 configurations for Mult=2)

SYSTEM-SPECIFIC SETTINGS:
Number of active electrons          ...    3
Number of active orbitals           ...    2
Total number of electrons           ...   61
Total number of orbitals            ...  186
Total number aux. functions         ... 1111

Determined orbital ranges:
   Internal       0 -   28 (  29 orbitals)
   Active        29 -   30 (   2 orbitals)
   External      31 -  185 ( 155 orbitals)
Number of rotation parameters      ...   4863

CI-STEP:
CI strategy                         ... General CI
Number of multiplicity blocks       ...    1
BLOCK  1 WEIGHT=   1.0000
  Multiplicity                      ...    2
  #(Configurations)                 ...    2
  #(CSFs)                           ...    2
  #(Roots)                          ...    2
    ROOT=0 WEIGHT=    0.500000
    ROOT=1 WEIGHT=    0.500000

  PrintLevel                        ...    1
  N(GuessMat)                       ...       512
  MaxDim(CI)                        ...        10
  MaxIter(CI)                       ...        64
  Energy Tolerance CI               ...  2.50e-09
  Residual Tolerance CI             ...  2.50e-09
  Shift(CI)                         ...  1.00e-04

INTEGRAL-TRANSFORMATION-STEP:
  Algorithm                         ... RI-MO

ORBITAL-IMPROVEMENT-STEP:
  Algorithm                         ... SuperCI(PT)
  Default Parametrization           ... CAYLEY
  Act-Act rotations                 ... depends on algorithm used

  Note: SuperCI(PT) will ignore FreezeIE, FreezeAct and FreezeGrad. In general Default settings are encouraged.
        In conjunction with ShiftUp, ShiftDn or GradScaling the performance of SuperCI(PT) is less optimal.  

  MaxRot                            ... 2.00e-01 
  Max. no of vectors (DIIS)         ... 15
  DThresh (cut-off) metric          ... 1.00e-06
  Switch step at gradient           ...  3.00e-02 
  Switch step at iteration          ...        50   
  Switch step to                    ... SuperCI(PT)    

SCF-SETTINGS:
  Incremental                       ... off
  RIJCOSX approximation             ... on
  UseFinalGrid                      ... on
  RI-JK approximation               ... off
  AO integral handling              ... DIRECT
  Integral Neglect Thresh           ...  2.50e-11
  Primitive cutoff TCut             ...  2.50e-12
  Energy convergence tolerance      ...  2.50e-08
  Orbital gradient convergence      ...  2.50e-04
  Max. number of iterations         ...        75  


PROPERTIES-SETTINGS:
  Spin orbit coupling               ... true
  GTensor                           ... true

FINAL ORBITALS:
  Active   Orbitals                 ... natural 
  Internal Orbitals                 ... canonical 
  External Orbitals                 ... canonical 

------------------
CAS-SCF ITERATIONS
------------------


MACRO-ITERATION   1: 
==>> SHARK/AuxDens: NDens=1 Thresh =     2.500000e-11 TCut=    2.500000e-12 Lmax=4 LmaxAux=6
    -> Making Hermite density - ok     0.007 sec
    -> Making Aux-basis density - (lmax=4)
    -> L=0 0:    0.012 sec done=    366606 ( 94.6%) skipped=     20808 
    -> L=1 0:    0.030 sec done=    388651 ( 90.6%) skipped=     40308 
    -> L=1 1:    0.008 sec done=    109570 ( 87.4%) skipped=     15818 
    -> L=2 0:    0.008 sec done=    125402 ( 93.7%) skipped=      8500 
    -> L=2 1:    0.007 sec done=     65379 ( 84.5%) skipped=     12020 
    -> L=2 2:    0.002 sec done=     11576 ( 85.5%) skipped=      1969 
    -> L=3 0:    0.004 sec done=     34830 (100.0%) skipped=         0 
    -> L=3 1:    0.003 sec done=     20124 (100.0%) skipped=         0 
    -> L=3 2:    0.002 sec done=      6192 (100.0%) skipped=         0 
    -> L=3 3:    0.013 sec done=      1161 (100.0%) skipped=         0 
    -> L=4 0:    0.003 sec done=     17415 (100.0%) skipped=         0 
    -> L=4 1:    0.003 sec done=     10062 (100.0%) skipped=         0 
    -> L=4 2:    0.001 sec done=      3096 (100.0%) skipped=         0 
    -> L=4 3:    0.002 sec done=       774 (100.0%) skipped=         0 
    -> L=4 4:    0.003 sec done=       387 (100.0%) skipped=         0 
    -> Aux basis density formed in    0.5 sec
    -> Solving linear equations - ok (   0.0 sec)
        Auxbasis Hermite Density:
        P|s>                     ...  0.000
        P|p>                     ...  0.000
        P|d>                     ...  0.000
        P|f>                     ...  0.000
        P|g>                     ...  0.000
        P|h>                     ...  0.000
        P|i>                     ...  0.000
        Building the Coulomb matrix: 
        J|ss>                          ... done (  0.0 sec) ndone=  1018782 nskipped1=    53466 nskipped2=    24123
        J|ps>                          ... done (  0.0 sec) ndone=   911926 nskipped1=    30377 nskipped2=    13587
        J|pp>                          ... done (  0.0 sec) ndone=   236499 nskipped1=     7869 nskipped2=     4860
        J|ds>                          ... done (  0.0 sec) ndone=   254053 nskipped1=     5554 nskipped2=     8971
        J|dp>                          ... done (  0.0 sec) ndone=   132059 nskipped1=     3967 nskipped2=     2520
        J|dd>                          ... done (  0.0 sec) ndone=    22056 nskipped1=        3 nskipped2=        0
        J|fs>                          ... done (  0.0 sec) ndone=    66207 nskipped1=        0 nskipped2=     1905
        J|fp>                          ... done (  0.0 sec) ndone=    30186 nskipped1=        0 nskipped2=        0
        J|fd>                          ... done (  0.0 sec) ndone=     7740 nskipped1=        0 nskipped2=        0
        J|ff>                          ... done (  0.0 sec) ndone=     1161 nskipped1=        0 nskipped2=        0
        J|gs>                          ... done (  0.0 sec) ndone=    34830 nskipped1=        0 nskipped2=        0
        J|gp>                          ... done (  0.0 sec) ndone=    15093 nskipped1=        0 nskipped2=        0
        J|gd>                          ... done (  0.0 sec) ndone=     3870 nskipped1=        0 nskipped2=        0
        J|gf>                          ... done (  0.0 sec) ndone=      774 nskipped1=        0 nskipped2=        0
        J|gg>                          ... done (  0.0 sec) ndone=      387 nskipped1=        0 nskipped2=        0
        Coulomb matrix built in   0.2 sec

        Total time for Split-RI-J                ...    1.071 sec
          (0) Prelude                            ...    0.000 sec
          (1) Hermite density                    ...    0.000 sec
          (2) Aux basis density                  ...    0.000 sec (inner=  0.0)
          (3) Linear equation solution           ...    0.000 sec
          (4) J-Matrix construction              ...    0.246 sec (inner=  0.0)
        ---------------------------------------------------------
   --- Inactive Energy E0 = -344.33866911 Eh
CI-ITERATION   0: 
  -346.162782799   0.000000000000 (    0.03)
  -346.159548842   0.000000000000
   CI-PROBLEM SOLVED
   DENSITIES MADE

                 <<<<<<<<<<<<<<<<<<INITIAL CI STATE CHECK>>>>>>>>>>>>>>>>>>

BLOCK  1 MULT= 2 NROOTS= 2 
ROOT   0:  E=    -346.1627827993 Eh
      0.93627 [     1]: 21
      0.06373 [     0]: 12
ROOT   1:  E=    -346.1595488420 Eh  0.088 eV    709.8 cm**-1
      0.93627 [     0]: 12
      0.06373 [     1]: 21

                 <<<<<<<<<<<<<<<<<<INITIAL CI STATE CHECK>>>>>>>>>>>>>>>>>>

   E(CAS)=  -346.161165821 Eh DE=    0.000000e+00
==>> SHARK/AuxDens: NDens=1 Thresh =     2.500000e-11 TCut=    2.500000e-12 Lmax=4 LmaxAux=6
    -> Making Hermite density - ok     0.006 sec
    -> Making Aux-basis density - (lmax=4)
    -> L=0 0:    0.011 sec done=    360161 ( 93.0%) skipped=     27253 
    -> L=1 0:    0.030 sec done=    381131 ( 88.9%) skipped=     47828 
    -> L=1 1:    0.008 sec done=    108759 ( 86.7%) skipped=     16629 
    -> L=2 0:    0.012 sec done=    122710 ( 91.6%) skipped=     11192 
    -> L=2 1:    0.007 sec done=     65095 ( 84.1%) skipped=     12304 
    -> L=2 2:    0.002 sec done=     11239 ( 83.0%) skipped=      2306 
[...]
    -> L=4 4 2 0:     0.003 sec done=        18 (=  5.2%) skipped=       328 
    -> L=4 4 2 1:     0.005 sec done=        12 (=  6.0%) skipped=       188 
    -> L=4 4 2 2:     0.006 sec done=         6 (= 17.1%) skipped=        29 
    -> L=4 4 3 0:     0.003 sec done=        12 (= 13.3%) skipped=        78 
    -> L=4 4 3 1:     0.005 sec done=         8 (= 15.4%) skipped=        44 
    -> L=4 4 3 2:     0.004 sec done=         6 (= 37.5%) skipped=        10 
    -> L=4 4 3 3:     0.002 sec done=         3 (=100.0%) skipped=         0 
    -> L=4 4 4 0:     0.002 sec done=         6 (= 13.3%) skipped=        39 
    -> L=4 4 4 1:     0.002 sec done=         4 (= 15.4%) skipped=        22 
    -> L=4 4 4 2:     0.003 sec done=         3 (= 37.5%) skipped=         5 
    -> L=4 4 4 3:     0.002 sec done=         2 (=100.0%) skipped=         0 
    -> L=4 4 4 4:     0.002 sec done=         1 (=100.0%) skipped=         0 
    ->Total SHARK integral loop time =    0.852 sec
done (  0.9 sec)
   .... returned from the SOC program

----------------------------------
QDPT WITH CASSCF DIAGONAL ENERGIES
----------------------------------

*************************************
Doing QDPT with ONLY SOC!
*************************************

Lowest eigenvalue of the SOC matrix:    -346.56583759 Eh
Energy stabilization:    -0.20418 cm-1
Eigenvalues:     cm-1         eV      Boltzmann populations at T =  300.000 K
   0:            0.00        0.0000       4.77e-01
   1:            0.00        0.0000       4.77e-01
   2:          630.64        0.0782       2.32e-02
   3:          630.64        0.0782       2.32e-02

The threshold for printing is 0.0100
Eigenvectors:
                         Weight      Real          Image    : Block Root    Spin   Ms
 STATE   0:       0.0000
                         0.922622    -0.959760     0.038504 :     0    0  1/2  1/2
                         0.077054    -0.225442    -0.161957 :     0    0  1/2 -1/2

 STATE   1:       0.0000
                         0.077054    -0.170864    -0.218769 :     0    0  1/2  1/2
                         0.922622     0.000000     0.960532 :     0    0  1/2 -1/2

 STATE   2:     630.6424
                         0.999676    -0.999838     0.000000 :     0    1  1/2 -1/2

 STATE   3:     630.6424
                         0.999676    -0.034302    -0.999250 :     0    1  1/2  1/2


Center of nuclear charge           = ( 13.5430, 29.6383, 25.7583)

--------------------------------------------
           ZERO-FIELD SPLITTING
(2ND ORDER SPIN-ORBIT COUPLING CONTRIBUTION)
--------------------------------------------

# The ground state multiplicity is smaller than 3. No D-tensor.


  *** Storing geometry in DTensor axis frame as Mo-HIPT-NH3_0_2_casscf-3-2-2_xtb_def2-tzvpp_def2-svp.sp.CAS_DTensor_HEFF_rotated.xyz  ***

--------------
KRAMERS PAIR 1
--------------

Matrix elements Re<1|S|1>    0.210135   0.164121   0.422946 
Matrix elements Re<1|S|2>    0.055461  -0.471602   0.155565 
Matrix elements Im<1|S|2>   -0.449955   0.018490   0.216545 
Matrix elements Re<1|L|1>    0.006337   0.004981   0.027792 
Matrix elements Re<1|L|2>    0.001068   0.000840   0.004686 
Matrix elements Im<1|L|2>    0.001487   0.001169   0.006523 

-------------------
ELECTRONIC G-MATRIX
-------------------

g-matrix:
    0.224240     1.798932     0.854187 
   -1.886916    -0.076383     0.667205 
    0.632354    -0.880229     1.749329 

g-factors:
    2.001023     2.001023     2.062562 iso =     2.021536

g-shifts:
   -0.001297    -0.001297     0.060243 iso =     0.019217
 Orientation: 
  X           0.1382249    0.9659092   -0.2188913
  Y           0.9690548   -0.1775400   -0.1715004
  Z          -0.2045158   -0.1884120   -0.9605593

Notes:  (1) The g-matrix conforms to the "BgS" spin Hamiltonian convention.
        (2) The principal values are square roots of the eigenvalues of g*gT
        (3) Orientations are eigenvectors of g*gT written as column vectors
        (4) Tensor is right-handed


-----------------------------------
ELECTRONIC G-MATRIX: S contribution
-----------------------------------

g-matrix:
    0.222103     1.801906     0.841513 
   -1.888595    -0.074045     0.657244 
    0.622982    -0.867183     1.693744 

g-factors:
    2.001023     2.001023     2.002319 iso =     2.001455

g-shifts:
   -0.001297    -0.001297     0.000000 iso =    -0.000864
 Orientation: 
  X           0.5908757    0.7765247    0.2188044
  Y          -0.8067132    0.5656940    0.1708919
  Z           0.0089254   -0.2774883    0.9606876

Notes:  (1) The g-matrix conforms to the "BgS" spin Hamiltonian convention.
        (2) The principal values are square roots of the eigenvalues of g*gT
        (3) Orientations are eigenvectors of g*gT written as column vectors
        (4) Tensor is right-handed


-----------------------------------
ELECTRONIC G-MATRIX: L contribution
-----------------------------------

g-matrix:
    0.002137    -0.002975     0.012673 
    0.001680    -0.002338     0.009961 
    0.009372    -0.013046     0.055585 

g-factors:
    0.000000     0.000000     0.060243 iso =     0.020081

g-shifts:
   -2.002319    -2.002319    -1.942076 iso =    -1.982238
 Orientation: 
  X           0.9576290   -0.1870692    0.2189791
  Y           0.1508052    0.9734648    0.1721165
  Z          -0.2453662   -0.1318006    0.9604291

Notes:  (1) The g-matrix conforms to the "BgS" spin Hamiltonian convention.
        (2) The principal values are square roots of the eigenvalues of g*gT
        (3) Orientations are eigenvectors of g*gT written as column vectors
        (4) Tensor is right-handed


------------------------------------------------------------------------------------------------------------------------
                               TRANSITION MAGNETIC DIPOLE CONTRIBUTIONS  
            (theta is the angle between the gz component of the lowest and the nth Kramers pairs)
------------------------------------------------------------------------------------------------------------------------
 States       Energy      Energy     Osh.Str           M2            MX             MY             MZ            theta  
              (cm-1)       (eV)        (au)          (au**2)        (au)           (au)           (au)    
------------------------------------------------------------------------------------------------------------------------
 0  0         0.00       0.0000     0.00000000     0.00020934     0.00316834     0.00249030     0.01389614     180.00
 0  1         0.00       0.0000     0.00000000     0.00001748     0.00091563     0.00071968     0.00401589     180.00
 1  1         0.00       0.0000     0.00000000     0.00020934     0.00316834     0.00249030     0.01389614     180.00
------------------------------------------------------------------------------------------------------------------------

----------------------------------------------
ELECTRONIC G-MATRIX FROM EFFECTIVE HAMILTONIAN
----------------------------------------------
Spin multiplicity = 2

g-matrix:
    2.003971     0.002303     0.012946 
    0.002317     2.002833     0.010174 
    0.012932     0.010101     2.057804 

g-factors:
    2.001023     2.001023     2.062562 iso =     2.021536

g-shifts:
   -0.001297    -0.001297     0.060243 iso =     0.019217
 Orientation: 
  X           0.1382251    0.9659091   -0.2188913
  Y           0.9690547   -0.1775401   -0.1715004
  Z          -0.2045158   -0.1884120   -0.9605593

Notes:  (1) The g-matrix conforms to the "BgS" spin Hamiltonian convention.
        (2) The principal values are square roots of the eigenvalues of g*gT
        (3) Orientations are eigenvectors of g*gT written as column vectors
        (4) Tensor is right-handed


--------------------------------
SOC CORRECTED EXCITATION SPECTRA
--------------------------------

Dim(SO)                  = 4
Number of initial states = -1
Center of mass           = ( 13.5226, 29.6355, 25.6760)
Nuclear contribution to the dipole moment =     1.248106,    0.170302,    5.022388 au

Calculating the dipole integrals          ... done

------------------------------------------------------------------------------------------
                    SOC CORRECTED ABSORPTION SPECTRUM
------------------------------------------------------------------------------------------
  States   Energy   Wavelength   fosc          T2       |TX|       |TY|      |TZ| 
           (cm-1)     (nm)                   (D**2)      (D)        (D)       (D) 
------------------------------------------------------------------------------------------
 0  1       0.0      0.0   0.000000000   0.00000   0.00000   0.00000   0.00000
 0  2     630.6   15856.8   0.000000226   0.00160   0.03317   0.01806   0.01314
 0  3     630.6   15856.8   0.000002712   0.01915   0.11479   0.06250   0.04546
 1  2     630.6   15856.8   0.000002712   0.01915   0.11479   0.06250   0.04546
 1  3     630.6   15856.8   0.000000226   0.00160   0.03317   0.01806   0.01314

------------------------------------------------------------------------------
                           SOC CORRECTED DIPOLE MOMENTS
------------------------------------------------------------------------------
      TX        TY        TZ           |T|
   (Debye)   (Debye)   (Debye)      (Debye)
------------------------------------------------------------------------------
   3.17243   0.43287  12.76590     13.16130

--------------
CASSCF TIMINGS
--------------

Total time                       ...      140.2 sec
Sum of individual times          ...      137.9 sec ( 98.4%)

Calculation of AO operators
   F(Core) operator              ...       53.9 sec ( 38.4%)
   G(Act) operator               ...       54.4 sec ( 38.8%)
   J(AO) operators               ...        0.0 sec (  0.0%)
Calculation of MO transformed quantities
   J(MO) operators               ...        9.6 sec (  6.9%)
   (pq|rs) integrals             ...        0.0 sec (  0.0%)
   AO->MO one electron integrals ...        0.0 sec (  0.0%)
Configuration interaction steps
   CI-setup phase                ...        0.0 sec (  0.0%)
   CI-solution phase             ...        7.6 sec (  5.4%)
   Generation of densities       ...        0.6 sec (  0.4%)
Orbital improvement steps
   Orbital gradient              ...        0.3 sec (  0.2%)
   O(1) converger                ...        1.3 sec (  1.0%)
Properties                       ...        5.3 sec (  3.8%)
   SOC integral calculation      ...        4.7 sec (  3.4%)
   SSC RMEs (incl. integrals)    ...        0.0 sec (  0.0%)
   SOC RMEs                      ...        0.1 sec (  0.0%)

Maximum memory used throughout the entire CASSCF-calculation: 200.7 MB

-------------------------   --------------------
FINAL SINGLE POINT ENERGY      -346.564400885635
-------------------------   --------------------



--------------------------------------   --------------------
FINAL SINGLE POINT ENERGY (QM/QM2)     -667.671227043865
--------------------------------------   --------------------


                            ***************************************
                            *     ORCA property calculations      *
                            ***************************************

                                    ---------------------
                                    Active property flags
                                    ---------------------
   (+) Dipole Moment


------------------------------------------------------------------------------
                       ORCA ELECTRIC PROPERTIES CALCULATION
------------------------------------------------------------------------------

Dipole Moment Calculation                       ... on
Quadrupole Moment Calculation                   ... off
Polarizability Calculation                      ... off
GBWName                                         ... Mo-HIPT-NH3_0_2_casscf-3-2-2_xtb_def2-tzvpp_def2-svp.sp.gbw
Electron density                                ... Mo-HIPT-NH3_0_2_casscf-3-2-2_xtb_def2-tzvpp_def2-svp.sp.scfp
SHARK General Contraction Test:  Segmented basis detected
   -> Pre-screening matrix found on disk - Trying to read with NShells=82
   -> Passing Pre-screening matrix on to SHARK ...ok
   -> Leaving CheckPreScreeningMatrix
----------------------
SHARK INTEGRAL PACKAGE
----------------------

Number of atoms                             ...     18
Number of basis functions                   ...    186
Number of shells                            ...     82
Maximum angular momentum                    ...      4
Integral batch strategy                     ... SHARK/LIBINT Hybrid
RI-J (if used) integral strategy            ... SPLIT-RIJ (Revised 2003 algorithm where possible)
Printlevel                                  ...      2
Contraction scheme used                     ... SEGMENTED contraction
Coulomb Range Separation                    ... NOT USED
Exchange Range Separation                   ... NOT USED
Finite Nucleus Model                        ... NOT USED
Auxiliary Coulomb fitting basis             ... AVAILABLE
   # of basis functions in Aux-J            ...   1111
   # of shells in Aux-J                     ...    387
   Maximum angular momentum in Aux-J        ...      6
Auxiliary J/K fitting basis                 ... AVAILABLE
   # of basis functions in Aux-JK           ...   1111
   # of shells in Aux-JK                    ...    387
   Maximum angular momentum in Aux-JK       ...      6
Auxiliary Correlation fitting basis         ... AVAILABLE
   # of basis functions in Aux-C            ...   1111
   # of shells in Aux-C                     ...    387
   Maximum angular momentum in Aux-C        ...      6
Auxiliary 'external' fitting basis          ... NOT available
Integral threshold                          ...     2.500000e-11
Primitive cut-off                           ...     2.500000e-12
Primitive pair pre-selection threshold      ...     2.500000e-12

The origin for moment calculation is the CENTER OF MASS  = (13.522577, 29.635503 25.675955)

-------------
DIPOLE MOMENT
-------------
                                X             Y             Z
Electronic contribution:     -1.49788      -0.33546      -6.10892
Nuclear contribution   :      1.24811       0.17030       5.02239
                        -----------------------------------------
Total Dipole Moment    :     -0.24977      -0.16516      -1.08653
                        -----------------------------------------
Magnitude (a.u.)       :      1.12703
Magnitude (Debye)      :      2.86469



--------------------
Rotational spectrum 
--------------------
 
Rotational constants in cm-1:     0.080957     0.059388     0.057655 
Rotational constants in MHz :  2427.020512  1780.418242  1728.467187 

 Dipole components along the rotational axes: 
x,y,z [a.u.] :    -1.126869     0.014590     0.012661 
x,y,z [Debye]:    -2.864273     0.037086     0.032182 

 
cn0926.172513hfi_userinit: assign_context command failed: Device or resource busy
cn0926.172513psmi_context_open: hfi_userinit: failed, trying again (1/3)
cn0926.172513hfi_userinit: assign_context command failed: Device or resource busy
cn0926.172513psmi_context_open: hfi_userinit: failed, trying again (2/3)
cn0926.172513hfi_userinit: assign_context command failed: Device or resource busy
cn0926.172513psmi_context_open: hfi_userinit: failed, trying again (3/3)
cn0926.172513hfi_userinit: assign_context command failed: Device or resource busy
cn0926.172505hfi_userinit: assign_context command failed: Device or resource busy
cn0926.172505psmi_context_open: hfi_userinit: failed, trying again (1/3)
cn0926.172505hfi_userinit: assign_context command failed: Device or resource busy
cn0926.172505psmi_context_open: hfi_userinit: failed, trying again (2/3)
cn0926.172505hfi_userinit: assign_context command failed: Device or resource busy
cn0926.172505psmi_context_open: hfi_userinit: failed, trying again (3/3)
cn0926.172505hfi_userinit: assign_context command failed: Device or resource busy
cn0926.172509hfi_userinit: assign_context command failed: Device or resource busy
cn0926.172509psmi_context_open: hfi_userinit: failed, trying again (1/3)
cn0926.172509hfi_userinit: assign_context command failed: Device or resource busy
cn0926.172509psmi_context_open: hfi_userinit: failed, trying again (2/3)
cn0926.172509hfi_userinit: assign_context command failed: Device or resource busy
cn0926.172509psmi_context_open: hfi_userinit: failed, trying again (3/3)
cn0926.172509hfi_userinit: assign_context command failed: Device or resource busy
cn0926.172507hfi_userinit: assign_context command failed: Device or resource busy
cn0926.172507psmi_context_open: hfi_userinit: failed, trying again (1/3)
cn0926.172507hfi_userinit: assign_context command failed: Device or resource busy
cn0926.172507psmi_context_open: hfi_userinit: failed, trying again (2/3)
cn0926.172507hfi_userinit: assign_context command failed: Device or resource busy
cn0926.172507psmi_context_open: hfi_userinit: failed, trying again (3/3)
cn0926.172507hfi_userinit: assign_context command failed: Device or resource busy
cn0926.172506hfi_userinit: assign_context command failed: Device or resource busy
cn0926.172504hfi_userinit: assign_context command failed: Device or resource busy
cn0926.172504psmi_context_open: hfi_userinit: failed, trying again (1/3)
cn0926.172504hfi_userinit: assign_context command failed: Device or resource busy
cn0926.172504psmi_context_open: hfi_userinit: failed, trying again (2/3)
cn0926.172504hfi_userinit: assign_context command failed: Device or resource busy
cn0926.172504psmi_context_open: hfi_userinit: failed, trying again (3/3)
cn0926.172504hfi_userinit: assign_context command failed: Device or resource busy
cn0926.172506psmi_context_open: hfi_userinit: failed, trying again (1/3)
cn0926.172506hfi_userinit: assign_context command failed: Device or resource busy
cn0926.172506psmi_context_open: hfi_userinit: failed, trying again (2/3)
cn0926.172506hfi_userinit: assign_context command failed: Device or resource busy
cn0926.172506psmi_context_open: hfi_userinit: failed, trying again (3/3)
cn0926.172506hfi_userinit: assign_context command failed: Device or resource busy
cn0926.172510hfi_userinit: assign_context command failed: Device or resource busy
cn0926.172510psmi_context_open: hfi_userinit: failed, trying again (1/3)
cn0926.172510hfi_userinit: assign_context command failed: Device or resource busy
cn0926.172510psmi_context_open: hfi_userinit: failed, trying again (2/3)
cn0926.172510hfi_userinit: assign_context command failed: Device or resource busy
cn0926.172510psmi_context_open: hfi_userinit: failed, trying again (3/3)
cn0926.172510hfi_userinit: assign_context command failed: Device or resource busy
cn0926.172508hfi_userinit: assign_context command failed: Device or resource busy
cn0926.172508psmi_context_open: hfi_userinit: failed, trying again (1/3)
cn0926.172508hfi_userinit: assign_context command failed: Device or resource busy
cn0926.172508psmi_context_open: hfi_userinit: failed, trying again (2/3)
cn0926.172508hfi_userinit: assign_context command failed: Device or resource busy
cn0926.172508psmi_context_open: hfi_userinit: failed, trying again (3/3)
cn0926.172508hfi_userinit: assign_context command failed: Device or resource busy

Timings for individual modules:

Sum of individual times         ...      167.362 sec (=   2.789 min)
GTO integral calculation        ...        6.276 sec (=   0.105 min)   3.7 %
SCF iterations                  ...        4.411 sec (=   0.074 min)   2.6 %
CASSCF iterations               ...      149.233 sec (=   2.487 min)  89.2 %
XTB module                      ...        3.720 sec (=   0.062 min)   2.2 %
ONIOM_Small energy and gradient ...        0.232 sec (=   0.004 min)   0.1 %
ONIOM_Large energy and gradient ...        3.490 sec (=   0.058 min)   2.1 %
                             ****ORCA TERMINATED NORMALLY****
TOTAL RUN TIME: 0 days 0 hours 3 minutes 6 seconds 328 msec
