
                                 *****************
                                 * O   R   C   A *
                                 *****************

           --- An Ab Initio, DFT and Semiempirical electronic structure package ---

                  #######################################################
                  #                        -***-                        #
                  #          Department of theory and spectroscopy      #
                  #               Directorship: Frank Neese             #
                  #        Max Planck Institute fuer Kohlenforschung    #
                  #                Kaiser Wilhelm Platz 1               #
                  #                 D-45470 Muelheim/Ruhr               #
                  #                      Germany                        #
                  #                                                     #
                  #                  All rights reserved                #
                  #                        -***-                        #
                  #######################################################


                         Program Version 4.2.0 -  RELEASE  -


 With contributions from (in alphabetic order):
   Daniel Aravena         : Magnetic Suceptibility
   Michael Atanasov       : Ab Initio Ligand Field Theory (pilot matlab implementation)
   Alexander A. Auer      : GIAO ZORA, VPT2
   Ute Becker             : Parallelization
   Giovanni Bistoni       : ED, misc. LED, open-shell LED, HFLED
   Martin Brehm           : Molecular dynamics
   Dmytro Bykov           : SCF Hessian
   Vijay G. Chilkuri      : MRCI spin determinant printing, contributions to CSF-ICE
   Dipayan Datta          : RHF DLPNO-CCSD density
   Achintya Kumar Dutta   : EOM-CC, STEOM-CC
   Dmitry Ganyushin       : Spin-Orbit,Spin-Spin,Magnetic field MRCI
   Miquel Garcia          : C-PCM Hessian, Gaussian charge scheme
   Yang Guo               : DLPNO-NEVPT2, CIM, IAO-localization
   Andreas Hansen         : Spin unrestricted coupled pair/coupled cluster methods
   Benjamin Helmich-Paris : CASSCF linear response (MC-RPA)
   Lee Huntington         : MR-EOM, pCC
   Robert Izsak           : Overlap fitted RIJCOSX, COSX-SCS-MP3, EOM
   Christian Kollmar      : KDIIS, OOCD, Brueckner-CCSD(T), CCSD density
   Simone Kossmann        : Meta GGA functionals, TD-DFT gradient, OOMP2, MP2 Hessian
   Martin Krupicka        : AUTO-CI
   Lucas Lang             : DCDCAS
   Dagmar Lenk            : GEPOL surface, SMD
   Dimitrios Liakos       : Extrapolation schemes; Compound Job, initial MDCI parallelization
   Dimitrios Manganas     : Further ROCIS development; embedding schemes
   Dimitrios Pantazis     : SARC Basis sets
   Taras Petrenko         : DFT Hessian,TD-DFT gradient, ASA, ECA, R-Raman, ABS, FL, XAS/XES, NRVS
   Peter Pinski           : DLPNO-MP2, DLPNO-MP2 Gradient
   Christoph Reimann      : Effective Core Potentials
   Marius Retegan         : Local ZFS, SOC
   Christoph Riplinger    : Optimizer, TS searches, QM/MM, DLPNO-CCSD(T), (RO)-DLPNO pert. Triples
   Tobias Risthaus        : Range-separated hybrids, TD-DFT gradient, RPA, STAB
   Michael Roemelt        : Original ROCIS implementation
   Masaaki Saitow         : Open-shell DLPNO-CCSD energy and density
   Barbara Sandhoefer     : DKH picture change effects
   Avijit Sen             : IP-ROCIS
   Kantharuban Sivalingam : CASSCF convergence, NEVPT2, FIC-MRCI
   Bernardo de Souza      : ESD, SOC TD-DFT
   Georgi Stoychev        : AutoAux, RI-MP2 NMR
   Willem Van den Heuvel  : Paramagnetic NMR
   Boris Wezisla          : Elementary symmetry handling
   Frank Wennmohs         : Technical directorship


 We gratefully acknowledge several colleagues who have allowed us to
 interface, adapt or use parts of their codes:
   Stefan Grimme, W. Hujo, H. Kruse,             : VdW corrections, initial TS optimization,
                  C. Bannwarth                     DFT functionals, gCP, sTDA/sTD-DF
   Ed Valeev, F. Pavosevic, A. Kumar             : LibInt (2-el integral package), F12 methods
   Garnet Chan, S. Sharma, J. Yang, R. Olivares  : DMRG
   Ulf Ekstrom                                   : XCFun DFT Library
   Mihaly Kallay                                 : mrcc  (arbitrary order and MRCC methods)
   Andreas Klamt, Michael Diedenhofen            : otool_cosmo (COSMO solvation model)
   Jiri Pittner, Ondrej Demel                    : Mk-CCSD
   Frank Weinhold                                : gennbo (NPA and NBO analysis)
   Christopher J. Cramer and Donald G. Truhlar   : smd solvation model
   Lars Goerigk                                  : TD-DFT with DH, B97 family of functionals
   V. Asgeirsson, H. Jonsson                     : NEB implementation
   FAccTs GmbH                                   : IRC, NEB, NEB-TS, Multilevel, MM, QM/MM, CI optimization
   S Lehtola, MJT Oliveira, MAL Marques          : LibXC Library


 Your calculation uses the libint2 library for the computation of 2-el integrals
 For citations please refer to: http://libint.valeyev.net

 Your ORCA version has been built with support for libXC version: 4.2.3
 For citations please refer to: https://tddft.org/programs/libxc/

 This ORCA versions uses:
   CBLAS   interface :  Fast vector & matrix operations
   LAPACKE interface :  Fast linear algebra routines
   SCALAPACK package :  Parallel linear algebra routines




***************************************
The coordinates will be read from file: benzene_0_1_bp86_6-31gpol.eopt.xyz
***************************************


----- Orbital basis set information -----
Your calculation utilizes the basis: def2-SVP
   F. Weigend and R. Ahlrichs, Phys. Chem. Chem. Phys. 7, 3297 (2005).

----- AuxJ basis set information -----
Your calculation utilizes the AutoAux generation procedure.
  G. L. Stoychev, A. A. Auer, F. Neese, J. Chem. Theory Comput. 13, 554 (2017)

----- AuxC basis set information -----
Your calculation utilizes the AutoAux generation procedure.
  G. L. Stoychev, A. A. Auer, F. Neese, J. Chem. Theory Comput. 13, 554 (2017)

----- AuxJK basis set information -----
Your calculation utilizes the AutoAux generation procedure.
  G. L. Stoychev, A. A. Auer, F. Neese, J. Chem. Theory Comput. 13, 554 (2017)

================================================================================
                                        WARNINGS
                       Please study these warnings very carefully!
================================================================================

INFO   : Checking CIS options ...
  ===> : (D) CORRECTION FOUND - SETTING MODE=3
  ===> : JK MODE FOUND - ACTIVATING RI-MP2 CODE
  ===> : MP2 AND CIS FOUND - CHECKING
WARNING: CIS(D) and MP2 runs must have the same orbital window
  ===> : adjusting orbital windows

WARNING: No MP2 level density has been requested!
         To caclulate MP2 level properties use
         %mp2 Density relaxed end
         or
         %mp2 Density unrelaxed end
         Otherwise for double-hybrid DFT only the energy is correct!

WARNING:  You are using a Range-Separated Double Hybrid functional with Doubles Correction 
          Changing Mode to AOINTS 


WARNING: CIS/ROCIS methods need fully converged wavefunctions
  ===> : Setting SCFConvForced true
         You can overwrite this default with %scf ConvForced false 


INFO   : the flag for use of LIBINT has been found!

================================================================================
                                       INPUT FILE
================================================================================
NAME = benzene_0_1_wb2plyp_def2-svp.tddft.inp
|  1> !uks wb2plyp def2-svp tightscf
|  2> !autoaux
|  3> !normalprint
|  4> !pal4
|  5> 
|  6> %scf
|  7>   maxiter 500
|  8> end
|  9> 
| 10> %tddft
| 11>   nroots 10
| 12> end
| 13> 
| 14> *xyzfile 0 1 benzene_0_1_bp86_6-31gpol.eopt.xyz
| 15> 
| 16>                          ****END OF INPUT****
================================================================================

                       ****************************
                       * Single Point Calculation *
                       ****************************

---------------------------------
CARTESIAN COORDINATES (ANGSTROEM)
---------------------------------
  C      1.419187   -0.225077   -0.018293
  C      0.515452   -1.343410    0.007805
  C     -0.895094   -1.122851    0.002116
  C     -1.410068    0.214988   -0.028149
  C     -0.506682    1.332507    0.027724
  C      0.903984    1.112046    0.017397
  H      2.497622   -0.403513   -0.088463
  H      0.919798   -2.362078    0.050517
  H     -1.585677   -1.975486    0.014708
  H     -2.485334    0.393381   -0.138303
  H     -0.910288    2.348987    0.115361
  H      1.594449    1.964546    0.043589

----------------------------
CARTESIAN COORDINATES (A.U.)
----------------------------
  NO LB      ZA    FRAG     MASS         X           Y           Z
   0 C     6.0000    0    12.011    2.681875   -0.425334   -0.034568
   1 C     6.0000    0    12.011    0.974064   -2.538677    0.014750
   2 C     6.0000    0    12.011   -1.691483   -2.121881    0.003999
   3 C     6.0000    0    12.011   -2.664642    0.406268   -0.053193
   4 C     6.0000    0    12.011   -0.957491    2.518074    0.052391
   5 C     6.0000    0    12.011    1.708282    2.101463    0.032876
   6 H     1.0000    0     1.008    4.719822   -0.762529   -0.167172
   7 H     1.0000    0     1.008    1.738166   -4.463680    0.095463
   8 H     1.0000    0     1.008   -2.996495   -3.733128    0.027795
   9 H     1.0000    0     1.008   -4.696600    0.743383   -0.261355
  10 H     1.0000    0     1.008   -1.720195    4.438943    0.218000
  11 H     1.0000    0     1.008    3.013072    3.712453    0.082371

--------------------------------
INTERNAL COORDINATES (ANGSTROEM)
--------------------------------
 C      0   0   0     0.000000000000     0.00000000     0.00000000
 C      1   0   0     1.438084061157     0.00000000     0.00000000
 C      2   1   0     1.427697629810   120.04444604     0.00000000
 C      3   2   1     1.433849983949   119.93816168   359.93081818
 C      4   3   2     1.438081297451   119.90874711   356.30065172
 C      5   4   3     1.427826835327   120.02459080     4.44541689
 H      1   2   3     1.095347374114   119.55157958   184.49825711
 H      2   1   3     1.096815348579   119.42476996   181.11053179
 H      3   2   1     1.097291699961   120.11283957   179.55920562
 H      4   3   2     1.095515924647   120.43587165   173.58333883
 H      5   4   3     1.097182389951   119.46899710   186.68360449
 H      6   5   4     1.097352951650   120.10085342   179.00951040

---------------------------
INTERNAL COORDINATES (A.U.)
---------------------------
 C      0   0   0     0.000000000000     0.00000000     0.00000000
 C      1   0   0     2.717585033144     0.00000000     0.00000000
 C      2   1   0     2.697957522389   120.04444604     0.00000000
 C      3   2   1     2.709583786791   119.93816168   359.93081818
 C      4   3   2     2.717579810496   119.90874711   356.30065172
 C      5   4   3     2.698201685432   120.02459080     4.44541689
 H      1   2   3     2.069906558585   119.55157958   184.49825711
 H      2   1   3     2.072680628296   119.42476996   181.11053179
 H      3   2   1     2.073580801951   120.11283957   179.55920562
 H      4   3   2     2.070225072933   120.43587165   173.58333883
 H      5   4   3     2.073374235968   119.46899710   186.68360449
 H      6   5   4     2.073696550868   120.10085342   179.00951040

---------------------
BASIS SET INFORMATION
---------------------
There are 2 groups of distinct atoms

 Group   1 Type C   : 7s4p1d contracted to 3s2p1d pattern {511/31/1}
 Group   2 Type H   : 4s1p contracted to 2s1p pattern {31/1}

Atom   0C    basis set group =>   1
Atom   1C    basis set group =>   1
Atom   2C    basis set group =>   1
Atom   3C    basis set group =>   1
Atom   4C    basis set group =>   1
Atom   5C    basis set group =>   1
Atom   6H    basis set group =>   2
Atom   7H    basis set group =>   2
Atom   8H    basis set group =>   2
Atom   9H    basis set group =>   2
Atom  10H    basis set group =>   2
Atom  11H    basis set group =>   2
---------------------------------
AUXILIARY/J BASIS SET INFORMATION
---------------------------------
There are 2 groups of distinct atoms

 Group   1 Type C   : 14s11p10d2f contracted to 14s11p10d2f pattern {11111111111111/11111111111/1111111111/11}
 Group   2 Type H   : 9s2p1d contracted to 9s2p1d pattern {111111111/11/1}

Atom   0C    basis set group =>   1
Atom   1C    basis set group =>   1
Atom   2C    basis set group =>   1
Atom   3C    basis set group =>   1
Atom   4C    basis set group =>   1
Atom   5C    basis set group =>   1
Atom   6H    basis set group =>   2
Atom   7H    basis set group =>   2
Atom   8H    basis set group =>   2
Atom   9H    basis set group =>   2
Atom  10H    basis set group =>   2
Atom  11H    basis set group =>   2
---------------------------------
AUXILIARY/C BASIS SET INFORMATION
---------------------------------
There are 2 groups of distinct atoms

 Group   1 Type C   : 14s11p10d2f contracted to 14s11p10d2f pattern {11111111111111/11111111111/1111111111/11}
 Group   2 Type H   : 9s2p1d contracted to 9s2p1d pattern {111111111/11/1}

Atom   0C    basis set group =>   1
Atom   1C    basis set group =>   1
Atom   2C    basis set group =>   1
Atom   3C    basis set group =>   1
Atom   4C    basis set group =>   1
Atom   5C    basis set group =>   1
Atom   6H    basis set group =>   2
Atom   7H    basis set group =>   2
Atom   8H    basis set group =>   2
Atom   9H    basis set group =>   2
Atom  10H    basis set group =>   2
Atom  11H    basis set group =>   2
----------------------------------
AUXILIARY/JK BASIS SET INFORMATION
----------------------------------
There are 2 groups of distinct atoms

 Group   1 Type C   : 14s11p10d2f contracted to 14s11p10d2f pattern {11111111111111/11111111111/1111111111/11}
 Group   2 Type H   : 9s2p1d contracted to 9s2p1d pattern {111111111/11/1}

Atom   0C    basis set group =>   1
Atom   1C    basis set group =>   1
Atom   2C    basis set group =>   1
Atom   3C    basis set group =>   1
Atom   4C    basis set group =>   1
Atom   5C    basis set group =>   1
Atom   6H    basis set group =>   2
Atom   7H    basis set group =>   2
Atom   8H    basis set group =>   2
Atom   9H    basis set group =>   2
Atom  10H    basis set group =>   2
Atom  11H    basis set group =>   2


           ************************************************************
           *        Program running with 4 parallel MPI-processes     *
           *              working on a common directory               *
           ************************************************************
------------------------------------------------------------------------------
                           ORCA GTO INTEGRAL CALCULATION
------------------------------------------------------------------------------

                         BASIS SET STATISTICS AND STARTUP INFO

 # of primitive gaussian shells          ...  102
 # of primitive gaussian functions       ...  186
 # of contracted shells                  ...   54
 # of contracted basis functions         ...  114
 Highest angular momentum                ...    2
 Maximum contraction depth               ...    5
 Integral package used                   ... LIBINT
 Integral threshhold            Thresh   ...  2.500e-11
 Primitive cut-off              TCut     ...  2.500e-12


------------------------------ INTEGRAL EVALUATION ----------------------------


 * One electron integrals 
 Pre-screening matrix                    ... done
 Shell pair data                         ... done (   0.001 sec)



           ************************************************************
           *        Program running with 4 parallel MPI-processes     *
           *              working on a common directory               *
           ************************************************************
-------------------------------------------------------------------------------
                                 ORCA SCF
-------------------------------------------------------------------------------

------------
SCF SETTINGS
------------
Hamiltonian:
 Density Functional     Method          .... DFT(GTOs)
 Exchange Functional    Exchange        .... WB88
 Correlation Functional Correlation     .... LYP
 LDA part of GGA corr.  LDAOpt          .... VWN-3
 Gradients option       PostSCFGGA      .... off
 Hybrid DFT is turned on
   Fraction HF Exchange ScalHFX         ....  0.530000
   Scaling of DF-GGA-X  ScalDFX         ....  0.000000
   Scaling of DF-GGA-C  ScalDFC         ....  0.730000
   Scaling of DF-LDA-C  ScalLDAC        ....  0.730000
   Perturbative correction              ....  0.270000
   Density functional embedding theory  .... OFF
 Long-range corrected/Screened/Range-Separated Hybrid DFT is turned on
   Amount of maximum screened exact exchange              ....  0.470000
   Range separation parameter mu (erf(mu*r12)/r12)        ....  0.300000


General Settings:
 Integral files         IntName         .... benzene_0_1_wb2plyp_def2-svp.tddft
 Hartree-Fock type      HFTyp           .... UHF
 Total Charge           Charge          ....    0
 Multiplicity           Mult            ....    1
 Number of Electrons    NEL             ....   42
 Basis Dimension        Dim             ....  114
 Nuclear Repulsion      ENuc            ....    198.5360083971 Eh

Convergence Acceleration:
 DIIS                   CNVDIIS         .... on
   Start iteration      DIISMaxIt       ....    12
   Startup error        DIISStart       ....  0.200000
   # of expansion vecs  DIISMaxEq       ....     5
   Bias factor          DIISBfac        ....   1.050
   Max. coefficient     DIISMaxC        ....  10.000
 Newton-Raphson         CNVNR           .... off
 SOSCF                  CNVSOSCF        .... off
 Level Shifting         CNVShift        .... on
   Level shift para.    LevelShift      ....    0.2500
   Turn off err/grad.   ShiftErr        ....    0.0010
 Zerner damping         CNVZerner       .... off
 Static damping         CNVDamp         .... on
   Fraction old density DampFac         ....    0.7000
   Max. Damping (<1)    DampMax         ....    0.9800
   Min. Damping (>=0)   DampMin         ....    0.0000
   Turn off err/grad.   DampErr         ....    0.1000
 Fernandez-Rico         CNVRico         .... off

SCF Procedure:
 Maximum # iterations   MaxIter         ....   500
 SCF integral mode      SCFMode         .... Direct
   Integral package                     .... LIBINT
 Reset frequency        DirectResetFreq ....    20
 Integral Threshold     Thresh          ....  2.500e-11 Eh
 Primitive CutOff       TCut            ....  2.500e-12 Eh

Convergence Tolerance:
 Convergence Check Mode ConvCheckMode   .... Total+1el-Energy
 Convergence forced     ConvForced      .... 1
 Energy Change          TolE            ....  1.000e-08 Eh
 1-El. energy change                    ....  1.000e-05 Eh
 DIIS Error             TolErr          ....  5.000e-07


Diagonalization of the overlap matrix:
Smallest eigenvalue                        ... 4.138e-04
Time for diagonalization                   ...    0.003 sec
Threshold for overlap eigenvalues          ... 1.000e-08
Number of eigenvalues below threshold      ... 0
Time for construction of square roots      ...    0.003 sec
Total time needed                          ...    0.006 sec

-------------------
DFT GRID GENERATION
-------------------

General Integration Accuracy     IntAcc      ...  4.340
Radial Grid Type                 RadialGrid  ... Gauss-Chebyshev
Angular Grid (max. acc.)         AngularGrid ... Lebedev-110
Angular grid pruning method      GridPruning ... 3 (G Style)
Weight generation scheme         WeightScheme... Becke
Basis function cutoff            BFCut       ...    1.0000e-11
Integration weight cutoff        WCut        ...    1.0000e-14
Grids for H and He will be reduced by one unit

# of grid points (after initial pruning)     ...  14700 (   0.0 sec)
# of grid points (after weights+screening)   ...  13814 (   0.0 sec)
nearest neighbour list constructed           ...    0.0 sec
Grid point re-assignment to atoms done       ...    0.0 sec
Grid point division into batches done        ...    0.0 sec
Reduced shell lists constructed in    0.0 sec

Total number of grid points                  ...    13814
Total number of batches                      ...      220
Average number of points per batch           ...       62
Average number of grid points per atom       ...     1151
Average number of shells per batch           ...    48.09 (89.05%)
Average number of basis functions per batch  ...   104.05 (91.28%)
Average number of large shells per batch     ...    42.45 (88.27%)
Average number of large basis fcns per batch ...    91.30 (87.75%)
Maximum spatial batch extension              ...   4.08,  3.80, 22.78 au
Average spatial batch extension              ...   0.48,  0.48,  1.04 au

Time for grid setup =    0.057 sec

------------------------------
INITIAL GUESS: MODEL POTENTIAL
------------------------------
Loading Hartree-Fock densities                     ... done
Calculating cut-offs                               ... done
Setting up the integral package                    ... done
Initializing the effective Hamiltonian             ... done
Starting the Coulomb interaction                   ... done (   0.0 sec)
Reading the grid                                   ... done
Mapping shells                                     ... done
Starting the XC term evaluation                    ... done (   0.0 sec)
  promolecular density results
     # of electrons  =     42.000252584
     EX              =    -32.341984216
     EC              =     -0.440353659
     EX+EC           =    -32.782337875
Transforming the Hamiltonian                       ... done (   0.0 sec)
Diagonalizing the Hamiltonian                      ... done (   0.0 sec)
Back transforming the eigenvectors                 ... done (   0.0 sec)
Now organizing SCF variables                       ... done
                      ------------------
                      INITIAL GUESS DONE (   0.2 sec)
                      ------------------
--------------
SCF ITERATIONS
--------------
               ***  Starting incremental Fock matrix formation  ***

                         ----------------------------
                         !        ITERATION     0   !
                         ----------------------------
   Total Energy        :    -231.160589810059 Eh
   Energy Change       :    -231.160589810059 Eh
   MAX-DP              :       0.021552828738
   RMS-DP              :       0.001636920312
   Actual Damping      :       0.7000
   Actual Level Shift  :       0.2500 Eh
   Int. Num. El.       :    41.99996370 (UP=   20.99998185 DN=   20.99998185)
   Exchange            :   -12.41149285
   Correlation         :    -1.01754505


                         ----------------------------
                         !        ITERATION     1   !
                         ----------------------------
   Total Energy        :    -231.207663709180 Eh
   Energy Change       :      -0.047073899121 Eh
   MAX-DP              :       0.017413863262
   RMS-DP              :       0.001285712545
   Actual Damping      :       0.7000
   Actual Level Shift  :       0.2500 Eh
   Int. Num. El.       :    42.00046664 (UP=   21.00023332 DN=   21.00023332)
   Exchange            :   -12.34378918
   Correlation         :    -1.01369003

                               ***Turning on DIIS***

                         ----------------------------
                         !        ITERATION     2   !
                         ----------------------------
   Total Energy        :    -231.235799365289 Eh
   Energy Change       :      -0.028135656109 Eh
   MAX-DP              :       0.041642823541
   RMS-DP              :       0.002973773391
   Actual Damping      :       0.0000
   Actual Level Shift  :       0.2500 Eh
   Int. Num. El.       :    42.00088866 (UP=   21.00044433 DN=   21.00044433)
   Exchange            :   -12.29113907
   Correlation         :    -1.01060129
   DIIS-Error          :       0.045441595676


                         ----------------------------
                         !        ITERATION     3   !
                         ----------------------------
   Total Energy        :    -231.287642667093 Eh
   Energy Change       :      -0.051843301805 Eh
   MAX-DP              :       0.007378640862
   RMS-DP              :       0.000379964498
   Actual Damping      :       0.0000
   Actual Level Shift  :       0.2500 Eh
   Int. Num. El.       :    42.00183564 (UP=   21.00091782 DN=   21.00091782)
   Exchange            :   -12.18469146
   Correlation         :    -1.00409431
   DIIS-Error          :       0.023392893874
   DIIS coefficients:
      0.31061   0.68939


                         ----------------------------
                         !        ITERATION     4   !
                         ----------------------------
   Total Energy        :    -231.291533703903 Eh
   Energy Change       :      -0.003891036810 Eh
   MAX-DP              :       0.001647687376
   RMS-DP              :       0.000107459045
   Actual Damping      :       0.0000
   Actual Level Shift  :       0.2500 Eh
   Int. Num. El.       :    42.00172425 (UP=   21.00086212 DN=   21.00086212)
   Exchange            :   -12.21034586
   Correlation         :    -1.00582738
   DIIS-Error          :       0.003697518026
   DIIS coefficients:
      0.01954  -0.07165   1.05211


                         ----------------------------
                         !        ITERATION     5   !
                         ----------------------------
   Total Energy        :    -231.291635869885 Eh
   Energy Change       :      -0.000102165982 Eh
   MAX-DP              :       0.000497614092
   RMS-DP              :       0.000049986333
   Actual Damping      :       0.0000
   Actual Level Shift  :       0.0000 Eh
   Int. Num. El.       :    42.00172132 (UP=   21.00086066 DN=   21.00086066)
   Exchange            :   -12.21360447
   Correlation         :    -1.00603744
   DIIS-Error          :       0.000643349551
   DIIS coefficients:
     -0.00992  -0.02064  -0.19203   1.22259


                         ----------------------------
                         !        ITERATION     6   !
                         ----------------------------
   Total Energy        :    -231.291645842064 Eh
   Energy Change       :      -0.000009972179 Eh
   MAX-DP              :       0.000072917799
   RMS-DP              :       0.000006514008
   Actual Damping      :       0.0000
   Actual Level Shift  :       0.0000 Eh
   Int. Num. El.       :    42.00172786 (UP=   21.00086393 DN=   21.00086393)
   Exchange            :   -12.21418085
   Correlation         :    -1.00607631
   DIIS-Error          :       0.000105148496
   DIIS coefficients:
      0.00006   0.00499  -0.00417  -0.13140   1.13052


                         ----------------------------
                         !        ITERATION     7   !
                         ----------------------------
   Total Energy        :    -231.291646060888 Eh
   Energy Change       :      -0.000000218824 Eh
   MAX-DP              :       0.000018071357
   RMS-DP              :       0.000000831117
   Actual Damping      :       0.0000
   Actual Level Shift  :       0.0000 Eh
   Int. Num. El.       :    42.00172865 (UP=   21.00086433 DN=   21.00086433)
   Exchange            :   -12.21418383
   Correlation         :    -1.00607466
   DIIS-Error          :       0.000028132947
   DIIS coefficients:
      0.97622   0.00055   0.00211  -0.02061   0.04174


                         ----------------------------
                         !        ITERATION     8   !
                         ----------------------------
   Total Energy        :    -231.291646063252 Eh
   Energy Change       :      -0.000000002364 Eh
   MAX-DP              :       0.000006039883
   RMS-DP              :       0.000000237145
   Actual Damping      :       0.0000
   Actual Level Shift  :       0.0000 Eh
   Int. Num. El.       :    42.00172872 (UP=   21.00086436 DN=   21.00086436)
   Exchange            :   -12.21418025
   Correlation         :    -1.00607425
   DIIS-Error          :       0.000014066738
   DIIS coefficients:
      0.36439   0.68712   0.00103  -0.00110  -0.05145


                         ----------------------------
                         !        ITERATION     9   !
                         ----------------------------
   Total Energy        :    -231.291646065289 Eh
   Energy Change       :      -0.000000002037 Eh
   MAX-DP              :       0.000000919166
   RMS-DP              :       0.000000071687
   Actual Damping      :       0.0000
   Actual Level Shift  :       0.0000 Eh
   Int. Num. El.       :    42.00172871 (UP=   21.00086435 DN=   21.00086435)
   Exchange            :   -12.21417976
   Correlation         :    -1.00607419
   DIIS-Error          :       0.000001495373
   DIIS coefficients:
     -0.05980  -0.02095   1.07959   0.00032   0.00084

                 **** Energy Check signals convergence ****

               *****************************************************
               *                     SUCCESS                       *
               *           SCF CONVERGED AFTER  10 CYCLES          *
               *****************************************************

Setting up the final grid:

General Integration Accuracy     IntAcc      ...  4.670
Radial Grid Type                 RadialGrid  ... Gauss-Chebyshev
Angular Grid (max. acc.)         AngularGrid ... Lebedev-302
Angular grid pruning method      GridPruning ... 3 (G Style)
Weight generation scheme         WeightScheme... Becke
Basis function cutoff            BFCut       ...    1.0000e-11
Integration weight cutoff        WCut        ...    1.0000e-14
Grids for H and He will be reduced by one unit

# of grid points (after initial pruning)     ...  57636 (   0.0 sec)
# of grid points (after weights+screening)   ...  53511 (   0.0 sec)
nearest neighbour list constructed           ...    0.0 sec
Grid point re-assignment to atoms done       ...    0.0 sec
Grid point division into batches done        ...    0.2 sec
Reduced shell lists constructed in    0.3 sec

Total number of grid points                  ...    53511
Total number of batches                      ...      843
Average number of points per batch           ...       63
Average number of grid points per atom       ...     4459
Average number of shells per batch           ...    47.10 (87.23%)
Average number of basis functions per batch  ...   101.35 (88.90%)
Average number of large shells per batch     ...    40.53 (86.05%)
Average number of large basis fcns per batch ...    86.31 (85.16%)
Maximum spatial batch extension              ...   4.01,  4.02, 23.15 au
Average spatial batch extension              ...   0.34,  0.34,  0.51 au

Final grid set up in    0.4 sec
Final integration                            ... done (   0.2 sec)
Change in XC energy                          ...    -0.000303775
Integrated number of electrons               ...    41.999980360
Previous integrated no of electrons          ...    42.001728698

----------------
TOTAL SCF ENERGY
----------------

Total Energy       :         -231.29194984 Eh           -6293.77392 eV

Components:
Nuclear Repulsion  :          198.53600840 Eh            5402.43944 eV
Electronic Energy  :         -429.82795824 Eh          -11696.21337 eV
One Electron Energy:         -703.68955866 Eh          -19148.36638 eV
Two Electron Energy:          273.86160043 Eh            7452.15301 eV

Virial components:
Potential Energy   :         -459.87787142 Eh          -12513.91308 eV
Kinetic Energy     :          228.58592158 Eh            6220.13915 eV
Virial Ratio       :            2.01183812


DFT components:
N(Alpha)           :       20.999990179839 electrons
N(Beta)            :       20.999990179839 electrons
N(Total)           :       41.999980359678 electrons
E(X)               :      -12.214412222830 Eh       
E(C)               :       -1.006145023276 Eh       
E(XC)              :      -13.220557246106 Eh       
DFET-embed. en.    :        0.000000000000 Eh       

---------------
SCF CONVERGENCE
---------------

  Last Energy change         ...    8.9017e-11  Tolerance :   1.0000e-08
  Last MAX-Density change    ...    3.8600e-07  Tolerance :   1.0000e-07
  Last RMS-Density change    ...    2.5795e-08  Tolerance :   5.0000e-09
  Last DIIS Error            ...    5.2451e-07  Tolerance :   5.0000e-07

             **** THE GBW FILE WAS UPDATED (benzene_0_1_wb2plyp_def2-svp.tddft.gbw) ****
             **** DENSITY FILE WAS UPDATED (benzene_0_1_wb2plyp_def2-svp.tddft.scfp) ****
             **** ENERGY FILE WAS UPDATED (benzene_0_1_wb2plyp_def2-svp.tddft.en.tmp) ****
----------------------
UHF SPIN CONTAMINATION
----------------------

Warning: in a DFT calculation there is little theoretical justification to 
         calculate <S**2> as in Hartree-Fock theory. We will do it anyways
         but you should keep in mind that the values have only limited relevance

Expectation value of <S**2>     :    -0.000000
Ideal value S*(S+1) for S=0.0   :     0.000000
Deviation                       :    -0.000000

             **** THE GBW FILE WAS UPDATED (benzene_0_1_wb2plyp_def2-svp.tddft.gbw) ****
             **** DENSITY FILE WAS UPDATED (benzene_0_1_wb2plyp_def2-svp.tddft.scfp) ****
----------------
ORBITAL ENERGIES
----------------
                 SPIN UP ORBITALS
  NO   OCC          E(Eh)            E(eV) 
   0   1.0000     -10.711407      -291.4722 
   1   1.0000     -10.711272      -291.4685 
   2   1.0000     -10.710972      -291.4604 
   3   1.0000     -10.710646      -291.4515 
   4   1.0000     -10.710369      -291.4440 
   5   1.0000     -10.710266      -291.4412 
   6   1.0000      -1.032547       -28.0970 
   7   1.0000      -0.919470       -25.0200 
   8   1.0000      -0.917186       -24.9579 
   9   1.0000      -0.758696       -20.6452 
  10   1.0000      -0.757340       -20.6083 
  11   1.0000      -0.662387       -18.0245 
  12   1.0000      -0.606589       -16.5061 
  13   1.0000      -0.578771       -15.7491 
  14   1.0000      -0.555783       -15.1236 
  15   1.0000      -0.553394       -15.0586 
  16   1.0000      -0.487231       -13.2582 
  17   1.0000      -0.470287       -12.7972 
  18   1.0000      -0.469628       -12.7792 
  19   1.0000      -0.342867        -9.3299 
  20   1.0000      -0.339857        -9.2480 
  21   0.0000       0.084901         2.3103 
  22   0.0000       0.088214         2.4004 
  23   0.0000       0.152336         4.1453 
  24   0.0000       0.191534         5.2119 
  25   0.0000       0.192298         5.2327 
  26   0.0000       0.225597         6.1388 
  27   0.0000       0.226369         6.1598 
  28   0.0000       0.245915         6.6917 
  29   0.0000       0.270916         7.3720 
  30   0.0000       0.388482        10.5711 
  31   0.0000       0.392145        10.6708 
  32   0.0000       0.403500        10.9798 
  33   0.0000       0.409319        11.1381 
  34   0.0000       0.487560        13.2672 
  35   0.0000       0.539405        14.6779 
  36   0.0000       0.547103        14.8874 
  37   0.0000       0.549875        14.9629 
  38   0.0000       0.555738        15.1224 
  39   0.0000       0.575936        15.6720 
  40   0.0000       0.617301        16.7976 
  41   0.0000       0.642242        17.4763 
  42   0.0000       0.646256        17.5855 
  43   0.0000       0.654173        17.8010 
  44   0.0000       0.687106        18.6971 
  45   0.0000       0.688496        18.7349 
  46   0.0000       0.750539        20.4232 
  47   0.0000       0.752111        20.4660 
  48   0.0000       0.784163        21.3382 
  49   0.0000       0.785454        21.3733 
  50   0.0000       0.813355        22.1325 
  51   0.0000       0.814843        22.1730 
  52   0.0000       0.820295        22.3213 
  53   0.0000       0.860023        23.4024 
  54   0.0000       0.864896        23.5350 
  55   0.0000       0.880278        23.9536 
  56   0.0000       0.884078        24.0570 
  57   0.0000       0.916373        24.9358 
  58   0.0000       0.921306        25.0700 
  59   0.0000       0.960350        26.1324 
  60   0.0000       1.034796        28.1582 
  61   0.0000       1.155763        31.4499 
  62   0.0000       1.159010        31.5383 
  63   0.0000       1.315676        35.8014 
  64   0.0000       1.389365        37.8065 
  65   0.0000       1.391208        37.8567 
  66   0.0000       1.413712        38.4690 
  67   0.0000       1.418476        38.5987 
  68   0.0000       1.429378        38.8954 
  69   0.0000       1.488599        40.5068 
  70   0.0000       1.492111        40.6024 
  71   0.0000       1.658015        45.1169 
  72   0.0000       1.796043        48.8728 
  73   0.0000       1.825314        49.6693 
  74   0.0000       1.838226        50.0207 
  75   0.0000       1.900179        51.7065 
  76   0.0000       1.903651        51.8010 
  77   0.0000       1.905580        51.8535 
  78   0.0000       1.926125        52.4125 
  79   0.0000       1.926851        52.4323 
  80   0.0000       1.930504        52.5317 
  81   0.0000       1.935069        52.6559 
  82   0.0000       1.973935        53.7135 
  83   0.0000       1.982981        53.9597 
  84   0.0000       2.120002        57.6882 
  85   0.0000       2.147105        58.4257 
  86   0.0000       2.157332        58.7040 
  87   0.0000       2.158640        58.7396 
  88   0.0000       2.169554        59.0366 
  89   0.0000       2.169997        59.0486 
  90   0.0000       2.286970        62.2316 
  91   0.0000       2.312947        62.9385 
  92   0.0000       2.313201        62.9454 
  93   0.0000       2.314911        62.9919 
  94   0.0000       2.469378        67.1952 
  95   0.0000       2.478530        67.4442 
  96   0.0000       2.480549        67.4992 
  97   0.0000       2.483877        67.5897 
  98   0.0000       2.522077        68.6292 
  99   0.0000       2.532194        68.9045 
 100   0.0000       2.708533        73.7029 
 101   0.0000       2.762431        75.1696 
 102   0.0000       2.765442        75.2515 
 103   0.0000       2.791035        75.9479 
 104   0.0000       2.923666        79.5570 
 105   0.0000       2.928390        79.6855 
 106   0.0000       2.935175        79.8702 
 107   0.0000       3.023320        82.2687 
 108   0.0000       3.033770        82.5531 
 109   0.0000       3.050194        83.0000 
 110   0.0000       3.280755        89.2739 
 111   0.0000       3.293983        89.6338 
 112   0.0000       3.403977        92.6269 
 113   0.0000       3.776235       102.7566 

                 SPIN DOWN ORBITALS
  NO   OCC          E(Eh)            E(eV) 
   0   1.0000     -10.711407      -291.4722 
   1   1.0000     -10.711272      -291.4685 
   2   1.0000     -10.710972      -291.4604 
   3   1.0000     -10.710646      -291.4515 
   4   1.0000     -10.710369      -291.4440 
   5   1.0000     -10.710266      -291.4412 
   6   1.0000      -1.032547       -28.0970 
   7   1.0000      -0.919470       -25.0200 
   8   1.0000      -0.917186       -24.9579 
   9   1.0000      -0.758696       -20.6452 
  10   1.0000      -0.757340       -20.6083 
  11   1.0000      -0.662387       -18.0245 
  12   1.0000      -0.606589       -16.5061 
  13   1.0000      -0.578771       -15.7491 
  14   1.0000      -0.555783       -15.1236 
  15   1.0000      -0.553394       -15.0586 
  16   1.0000      -0.487231       -13.2582 
  17   1.0000      -0.470287       -12.7972 
  18   1.0000      -0.469628       -12.7792 
  19   1.0000      -0.342867        -9.3299 
  20   1.0000      -0.339857        -9.2480 
  21   0.0000       0.084901         2.3103 
  22   0.0000       0.088214         2.4004 
  23   0.0000       0.152336         4.1453 
  24   0.0000       0.191534         5.2119 
  25   0.0000       0.192298         5.2327 
  26   0.0000       0.225597         6.1388 
  27   0.0000       0.226369         6.1598 
  28   0.0000       0.245915         6.6917 
  29   0.0000       0.270916         7.3720 
  30   0.0000       0.388482        10.5711 
  31   0.0000       0.392145        10.6708 
  32   0.0000       0.403500        10.9798 
  33   0.0000       0.409319        11.1381 
  34   0.0000       0.487560        13.2672 
  35   0.0000       0.539405        14.6779 
  36   0.0000       0.547103        14.8874 
  37   0.0000       0.549875        14.9629 
  38   0.0000       0.555738        15.1224 
  39   0.0000       0.575936        15.6720 
  40   0.0000       0.617301        16.7976 
  41   0.0000       0.642242        17.4763 
  42   0.0000       0.646256        17.5855 
  43   0.0000       0.654173        17.8010 
  44   0.0000       0.687106        18.6971 
  45   0.0000       0.688496        18.7349 
  46   0.0000       0.750539        20.4232 
  47   0.0000       0.752111        20.4660 
  48   0.0000       0.784163        21.3382 
  49   0.0000       0.785454        21.3733 
  50   0.0000       0.813355        22.1325 
  51   0.0000       0.814843        22.1730 
  52   0.0000       0.820295        22.3213 
  53   0.0000       0.860023        23.4024 
  54   0.0000       0.864896        23.5350 
  55   0.0000       0.880278        23.9536 
  56   0.0000       0.884078        24.0570 
  57   0.0000       0.916373        24.9358 
  58   0.0000       0.921306        25.0700 
  59   0.0000       0.960350        26.1324 
  60   0.0000       1.034796        28.1582 
  61   0.0000       1.155763        31.4499 
  62   0.0000       1.159010        31.5383 
  63   0.0000       1.315676        35.8014 
  64   0.0000       1.389365        37.8065 
  65   0.0000       1.391208        37.8567 
  66   0.0000       1.413712        38.4690 
  67   0.0000       1.418476        38.5987 
  68   0.0000       1.429378        38.8954 
  69   0.0000       1.488599        40.5068 
  70   0.0000       1.492111        40.6024 
  71   0.0000       1.658015        45.1169 
  72   0.0000       1.796043        48.8728 
  73   0.0000       1.825314        49.6693 
  74   0.0000       1.838226        50.0207 
  75   0.0000       1.900179        51.7065 
  76   0.0000       1.903651        51.8010 
  77   0.0000       1.905580        51.8535 
  78   0.0000       1.926125        52.4125 
  79   0.0000       1.926851        52.4323 
  80   0.0000       1.930504        52.5317 
  81   0.0000       1.935069        52.6559 
  82   0.0000       1.973935        53.7135 
  83   0.0000       1.982981        53.9597 
  84   0.0000       2.120002        57.6882 
  85   0.0000       2.147105        58.4257 
  86   0.0000       2.157332        58.7040 
  87   0.0000       2.158640        58.7396 
  88   0.0000       2.169554        59.0366 
  89   0.0000       2.169997        59.0486 
  90   0.0000       2.286970        62.2316 
  91   0.0000       2.312947        62.9385 
  92   0.0000       2.313201        62.9454 
  93   0.0000       2.314911        62.9919 
  94   0.0000       2.469378        67.1952 
  95   0.0000       2.478530        67.4442 
  96   0.0000       2.480549        67.4992 
  97   0.0000       2.483877        67.5897 
  98   0.0000       2.522077        68.6292 
  99   0.0000       2.532194        68.9045 
 100   0.0000       2.708533        73.7029 
 101   0.0000       2.762431        75.1696 
 102   0.0000       2.765442        75.2515 
 103   0.0000       2.791035        75.9479 
 104   0.0000       2.923666        79.5570 
 105   0.0000       2.928390        79.6855 
 106   0.0000       2.935175        79.8702 
 107   0.0000       3.023320        82.2687 
 108   0.0000       3.033770        82.5531 
 109   0.0000       3.050194        83.0000 
 110   0.0000       3.280755        89.2739 
 111   0.0000       3.293983        89.6338 
 112   0.0000       3.403977        92.6269 
 113   0.0000       3.776235       102.7566 

                    ********************************
                    * MULLIKEN POPULATION ANALYSIS *
                    ********************************

--------------------------------------------
MULLIKEN ATOMIC CHARGES AND SPIN POPULATIONS
--------------------------------------------
   0 C :   -0.032814    0.000000
   1 C :   -0.032408    0.000000
   2 C :   -0.029720    0.000000
   3 C :   -0.033527    0.000000
   4 C :   -0.032899    0.000000
   5 C :   -0.029763    0.000000
   6 H :    0.031158    0.000000
   7 H :    0.031404    0.000000
   8 H :    0.032194    0.000000
   9 H :    0.032092    0.000000
  10 H :    0.032162    0.000000
  11 H :    0.032121    0.000000
Sum of atomic charges         :   -0.0000000
Sum of atomic spin populations:    0.0000000

-----------------------------------------------------
MULLIKEN REDUCED ORBITAL CHARGES AND SPIN POPULATIONS
-----------------------------------------------------
CHARGE
  0 C s       :     3.146705  s :     3.146705
      pz      :     0.986642  p :     2.850818
      px      :     0.912121
      py      :     0.952055
      dz2     :     0.002934  d :     0.035291
      dxz     :     0.002487
      dyz     :     0.006132
      dx2y2   :     0.012549
      dxy     :     0.011189
  1 C s       :     3.146732  s :     3.146732
      pz      :     0.987387  p :     2.850198
      px      :     0.946492
      py      :     0.916320
      dz2     :     0.002944  d :     0.035478
      dxz     :     0.005837
      dyz     :     0.002843
      dx2y2   :     0.011921
      dxy     :     0.011933
  2 C s       :     3.145386  s :     3.145386
      pz      :     0.987689  p :     2.848724
      px      :     0.935123
      py      :     0.925912
      dz2     :     0.002953  d :     0.035609
      dxz     :     0.004825
      dyz     :     0.003910
      dx2y2   :     0.011136
      dxy     :     0.012784
  3 C s       :     3.146450  s :     3.146450
      pz      :     0.985899  p :     2.851787
      px      :     0.914162
      py      :     0.951726
      dz2     :     0.002918  d :     0.035291
      dxz     :     0.002570
      dyz     :     0.006134
      dx2y2   :     0.012492
      dxy     :     0.011176
  4 C s       :     3.146488  s :     3.146488
      pz      :     0.986818  p :     2.850929
      px      :     0.946522
      py      :     0.917589
      dz2     :     0.002933  d :     0.035482
      dxz     :     0.005853
      dyz     :     0.002902
      dx2y2   :     0.011889
      dxy     :     0.011906
  5 C s       :     3.145296  s :     3.145296
      pz      :     0.987829  p :     2.848851
      px      :     0.935247
      py      :     0.925775
      dz2     :     0.002953  d :     0.035616
      dxz     :     0.004830
      dyz     :     0.003918
      dx2y2   :     0.011134
      dxy     :     0.012781
  6 H s       :     0.945819  s :     0.945819
      pz      :     0.004150  p :     0.023023
      px      :     0.016023
      py      :     0.002850
  7 H s       :     0.945619  s :     0.945619
      pz      :     0.004082  p :     0.022977
      px      :     0.004385
      py      :     0.014509
  8 H s       :     0.944849  s :     0.944849
      pz      :     0.004044  p :     0.022957
      px      :     0.008027
      py      :     0.010886
  9 H s       :     0.944886  s :     0.944886
      pz      :     0.004238  p :     0.023022
      px      :     0.015932
      py      :     0.002852
 10 H s       :     0.944871  s :     0.944871
      pz      :     0.004149  p :     0.022967
      px      :     0.004376
      py      :     0.014442
 11 H s       :     0.944923  s :     0.944923
      pz      :     0.004049  p :     0.022956
      px      :     0.008023
      py      :     0.010884

SPIN
  0 C s       :     0.000000  s :     0.000000
      pz      :     0.000000  p :     0.000000
      px      :     0.000000
      py      :     0.000000
      dz2     :     0.000000  d :     0.000000
      dxz     :     0.000000
      dyz     :     0.000000
      dx2y2   :     0.000000
      dxy     :     0.000000
  1 C s       :     0.000000  s :     0.000000
      pz      :     0.000000  p :     0.000000
      px      :     0.000000
      py      :     0.000000
      dz2     :     0.000000  d :     0.000000
      dxz     :     0.000000
      dyz     :     0.000000
      dx2y2   :     0.000000
      dxy     :     0.000000
  2 C s       :     0.000000  s :     0.000000
      pz      :     0.000000  p :     0.000000
      px      :     0.000000
      py      :     0.000000
      dz2     :     0.000000  d :     0.000000
      dxz     :     0.000000
      dyz     :     0.000000
      dx2y2   :     0.000000
      dxy     :     0.000000
  3 C s       :     0.000000  s :     0.000000
      pz      :     0.000000  p :     0.000000
      px      :     0.000000
      py      :     0.000000
      dz2     :     0.000000  d :     0.000000
      dxz     :     0.000000
      dyz     :     0.000000
      dx2y2   :     0.000000
      dxy     :     0.000000
  4 C s       :     0.000000  s :     0.000000
      pz      :     0.000000  p :     0.000000
      px      :     0.000000
      py      :     0.000000
      dz2     :     0.000000  d :     0.000000
      dxz     :     0.000000
      dyz     :     0.000000
      dx2y2   :     0.000000
      dxy     :     0.000000
  5 C s       :     0.000000  s :     0.000000
      pz      :     0.000000  p :     0.000000
      px      :     0.000000
      py      :     0.000000
      dz2     :     0.000000  d :     0.000000
      dxz     :     0.000000
      dyz     :     0.000000
      dx2y2   :     0.000000
      dxy     :     0.000000
  6 H s       :     0.000000  s :     0.000000
      pz      :     0.000000  p :     0.000000
      px      :     0.000000
      py      :     0.000000
  7 H s       :     0.000000  s :     0.000000
      pz      :     0.000000  p :     0.000000
      px      :     0.000000
      py      :     0.000000
  8 H s       :     0.000000  s :     0.000000
      pz      :     0.000000  p :     0.000000
      px      :     0.000000
      py      :     0.000000
  9 H s       :     0.000000  s :     0.000000
      pz      :     0.000000  p :     0.000000
      px      :     0.000000
      py      :     0.000000
 10 H s       :     0.000000  s :     0.000000
      pz      :     0.000000  p :     0.000000
      px      :     0.000000
      py      :     0.000000
 11 H s       :     0.000000  s :     0.000000
      pz      :     0.000000  p :     0.000000
      px      :     0.000000
      py      :     0.000000

------------------------
MULLIKEN OVERLAP CHARGES
------------------------
B(  0-C ,  1-C ) :   0.8539 B(  0-C ,  3-C ) :  -0.1465 B(  0-C ,  5-C ) :   0.8459 
B(  0-C ,  6-H ) :   0.8661 B(  0-C ,  7-H ) :  -0.0990 B(  0-C , 11-H ) :  -0.0997 
B(  1-C ,  2-C ) :   0.8474 B(  1-C ,  4-C ) :  -0.1460 B(  1-C ,  6-H ) :  -0.0987 
B(  1-C ,  7-H ) :   0.8664 B(  1-C ,  8-H ) :  -0.0998 B(  2-C ,  3-C ) :   0.8471 
B(  2-C ,  5-C ) :  -0.1456 B(  2-C ,  7-H ) :  -0.1014 B(  2-C ,  8-H ) :   0.8661 
B(  2-C ,  9-H ) :  -0.0998 B(  3-C ,  4-C ) :   0.8528 B(  3-C ,  8-H ) :  -0.0997 
B(  3-C ,  9-H ) :   0.8648 B(  3-C , 10-H ) :  -0.0985 B(  4-C ,  5-C ) :   0.8487 
B(  4-C ,  9-H ) :  -0.0980 B(  4-C , 10-H ) :   0.8653 B(  4-C , 11-H ) :  -0.1000 
B(  5-C ,  6-H ) :  -0.1009 B(  5-C , 10-H ) :  -0.1003 B(  5-C , 11-H ) :   0.8663 



                     *******************************
                     * LOEWDIN POPULATION ANALYSIS *
                     *******************************

-------------------------------------------
LOEWDIN ATOMIC CHARGES AND SPIN POPULATIONS
-------------------------------------------
   0 C :   -0.031392    0.000000
   1 C :   -0.032313    0.000000
   2 C :   -0.033088    0.000000
   3 C :   -0.031385    0.000000
   4 C :   -0.032367    0.000000
   5 C :   -0.033216    0.000000
   6 H :    0.031802    0.000000
   7 H :    0.032230    0.000000
   8 H :    0.032651    0.000000
   9 H :    0.031996    0.000000
  10 H :    0.032422    0.000000
  11 H :    0.032660    0.000000

----------------------------------------------------
LOEWDIN REDUCED ORBITAL CHARGES AND SPIN POPULATIONS
----------------------------------------------------
CHARGE
  0 C s       :     2.875629  s :     2.875629
      pz      :     0.970403  p :     3.072249
      px      :     1.044159
      py      :     1.057687
      dz2     :     0.005858  d :     0.083514
      dxz     :     0.004053
      dyz     :     0.012088
      dx2y2   :     0.032165
      dxy     :     0.029350
  1 C s       :     2.874820  s :     2.874820
      pz      :     0.970496  p :     3.073353
      px      :     1.057620
      py      :     1.045237
      dz2     :     0.005904  d :     0.084140
      dxz     :     0.011417
      dyz     :     0.004826
      dx2y2   :     0.030843
      dxy     :     0.031149
  2 C s       :     2.873984  s :     2.873984
      pz      :     0.970475  p :     3.074506
      px      :     1.054439
      py      :     1.049593
      dz2     :     0.005945  d :     0.084598
      dxz     :     0.009169
      dyz     :     0.007169
      dx2y2   :     0.029350
      dxy     :     0.032965
  3 C s       :     2.875835  s :     2.875835
      pz      :     0.970355  p :     3.072067
      px      :     1.044081
      py      :     1.057631
      dz2     :     0.005833  d :     0.083483
      dxz     :     0.004240
      dyz     :     0.012103
      dx2y2   :     0.032015
      dxy     :     0.029291
  4 C s       :     2.874983  s :     2.874983
      pz      :     0.970532  p :     3.073254
      px      :     1.057668
      py      :     1.045054
      dz2     :     0.005889  d :     0.084129
      dxz     :     0.011462
      dyz     :     0.004958
      dx2y2   :     0.030762
      dxy     :     0.031058
  5 C s       :     2.873910  s :     2.873910
      pz      :     0.970666  p :     3.074677
      px      :     1.054369
      py      :     1.049642
      dz2     :     0.005950  d :     0.084629
      dxz     :     0.009187
      dyz     :     0.007184
      dx2y2   :     0.029349
      dxy     :     0.032960
  6 H s       :     0.901261  s :     0.901261
      pz      :     0.013748  p :     0.066937
      px      :     0.042194
      py      :     0.010995
  7 H s       :     0.901149  s :     0.901149
      pz      :     0.013558  p :     0.066621
      px      :     0.014518
      py      :     0.038545
  8 H s       :     0.900847  s :     0.900847
      pz      :     0.013448  p :     0.066502
      px      :     0.023085
      py      :     0.029969
  9 H s       :     0.901042  s :     0.901042
      pz      :     0.013944  p :     0.066962
      px      :     0.042026
      py      :     0.010992
 10 H s       :     0.900982  s :     0.900982
      pz      :     0.013702  p :     0.066596
      px      :     0.014482
      py      :     0.038412
 11 H s       :     0.900855  s :     0.900855
      pz      :     0.013460  p :     0.066485
      px      :     0.023076
      py      :     0.029949

SPIN
  0 C s       :     0.000000  s :     0.000000
      pz      :     0.000000  p :     0.000000
      px      :     0.000000
      py      :     0.000000
      dz2     :     0.000000  d :     0.000000
      dxz     :     0.000000
      dyz     :     0.000000
      dx2y2   :     0.000000
      dxy     :     0.000000
  1 C s       :     0.000000  s :     0.000000
      pz      :     0.000000  p :     0.000000
      px      :     0.000000
      py      :     0.000000
      dz2     :     0.000000  d :     0.000000
      dxz     :     0.000000
      dyz     :     0.000000
      dx2y2   :     0.000000
      dxy     :     0.000000
  2 C s       :     0.000000  s :     0.000000
      pz      :     0.000000  p :     0.000000
      px      :     0.000000
      py      :     0.000000
      dz2     :     0.000000  d :     0.000000
      dxz     :     0.000000
      dyz     :     0.000000
      dx2y2   :     0.000000
      dxy     :     0.000000
  3 C s       :     0.000000  s :     0.000000
      pz      :     0.000000  p :     0.000000
      px      :     0.000000
      py      :     0.000000
      dz2     :     0.000000  d :     0.000000
      dxz     :     0.000000
      dyz     :     0.000000
      dx2y2   :     0.000000
      dxy     :     0.000000
  4 C s       :     0.000000  s :     0.000000
      pz      :     0.000000  p :     0.000000
      px      :     0.000000
      py      :     0.000000
      dz2     :     0.000000  d :     0.000000
      dxz     :     0.000000
      dyz     :     0.000000
      dx2y2   :     0.000000
      dxy     :     0.000000
  5 C s       :     0.000000  s :     0.000000
      pz      :     0.000000  p :     0.000000
      px      :     0.000000
      py      :     0.000000
      dz2     :     0.000000  d :     0.000000
      dxz     :     0.000000
      dyz     :     0.000000
      dx2y2   :     0.000000
      dxy     :     0.000000
  6 H s       :     0.000000  s :     0.000000
      pz      :     0.000000  p :     0.000000
      px      :     0.000000
      py      :     0.000000
  7 H s       :     0.000000  s :     0.000000
      pz      :     0.000000  p :     0.000000
      px      :     0.000000
      py      :     0.000000
  8 H s       :     0.000000  s :     0.000000
      pz      :     0.000000  p :     0.000000
      px      :     0.000000
      py      :     0.000000
  9 H s       :     0.000000  s :     0.000000
      pz      :     0.000000  p :     0.000000
      px      :     0.000000
      py      :     0.000000
 10 H s       :     0.000000  s :     0.000000
      pz      :     0.000000  p :     0.000000
      px      :     0.000000
      py      :     0.000000
 11 H s       :     0.000000  s :     0.000000
      pz      :     0.000000  p :     0.000000
      px      :     0.000000
      py      :     0.000000

---------------------------------
LOEWDIN BOND ORDERS (THRESH 0.050000)
---------------------------------
B(  0-C ,  1-C ) :   1.4601 B(  0-C ,  2-C ) :   0.0731 B(  0-C ,  3-C ) :   0.1160 
B(  0-C ,  4-C ) :   0.0737 B(  0-C ,  5-C ) :   1.4648 B(  0-C ,  6-H ) :   0.9455 
B(  0-C ,  7-H ) :   0.0523 B(  0-C , 11-H ) :   0.0524 B(  1-C ,  2-C ) :   1.4710 
B(  1-C ,  3-C ) :   0.0737 B(  1-C ,  4-C ) :   0.1131 B(  1-C ,  5-C ) :   0.0726 
B(  1-C ,  6-H ) :   0.0524 B(  1-C ,  7-H ) :   0.9445 B(  1-C ,  8-H ) :   0.0529 
B(  2-C ,  3-C ) :   1.4647 B(  2-C ,  4-C ) :   0.0726 B(  2-C ,  5-C ) :   0.1108 
B(  2-C ,  7-H ) :   0.0526 B(  2-C ,  8-H ) :   0.9438 B(  2-C ,  9-H ) :   0.0523 
B(  3-C ,  4-C ) :   1.4600 B(  3-C ,  5-C ) :   0.0731 B(  3-C ,  8-H ) :   0.0523 
B(  3-C ,  9-H ) :   0.9455 B(  3-C , 10-H ) :   0.0522 B(  4-C ,  5-C ) :   1.4710 
B(  4-C ,  9-H ) :   0.0524 B(  4-C , 10-H ) :   0.9444 B(  4-C , 11-H ) :   0.0528 
B(  5-C ,  6-H ) :   0.0523 B(  5-C , 10-H ) :   0.0526 B(  5-C , 11-H ) :   0.9437 


------------------------------------------
LOEWDIN REDUCED ORBITAL POPULATIONS PER MO
-------------------------------------------
THRESHOLD FOR PRINTING IS 0.1%
SPIN UP
                      0         1         2         3         4         5   
                 -10.71141 -10.71127 -10.71097 -10.71065 -10.71037 -10.71027
                   1.00000   1.00000   1.00000   1.00000   1.00000   1.00000
                  --------  --------  --------  --------  --------  --------
 0 C  s               6.7      63.8       0.2      18.8       0.1       9.9
 1 C  s               4.5      11.7      23.7      18.7      22.9      18.1
 2 C  s              11.2       0.1      23.8      13.1      33.7      17.7
 3 C  s              58.8      15.7       0.4      19.0       0.6       5.0
 3 C  py              0.0       0.0       0.1       0.0       0.1       0.0
 4 C  s              14.4       0.3      31.1      24.7      12.6      16.4
 5 C  s               4.0       7.9      20.2       5.2      29.7      32.5

                      6         7         8         9        10        11   
                  -1.03255  -0.91947  -0.91719  -0.75870  -0.75734  -0.66239
                   1.00000   1.00000   1.00000   1.00000   1.00000   1.00000
                  --------  --------  --------  --------  --------  --------
 0 C  s              12.1       0.9      18.0       9.3       0.0       0.3
 0 C  px              2.4       0.2       0.2       2.6       0.4      10.6
 0 C  py              0.1       8.2       0.3       0.1      13.7       0.3
 0 C  dz2             0.1       0.0       0.1       0.0       0.0       0.0
 0 C  dxy             0.0       0.2       0.0       0.0       0.2       0.0
 1 C  s              12.2      10.3       8.5       2.1       7.1       0.4
 1 C  px              0.3       3.8       3.9       7.9       4.8       1.4
 1 C  py              2.1       0.3       0.9       3.6       0.6       9.5
 1 C  dz2             0.1       0.1       0.1       0.0       0.0       0.0
 1 C  dx2y2           0.0       0.1       0.0       0.1       0.0       0.0
 1 C  dxy             0.0       0.0       0.2       0.1       0.0       0.0
 2 C  s              12.2      17.1       1.7       2.5       6.7       0.4
 2 C  px              1.0       0.8       4.6       3.9       5.7       4.3
 2 C  py              1.5       0.2       3.4       7.1       0.1       6.7
 2 C  dz2             0.1       0.1       0.0       0.0       0.0       0.0
 2 C  dx2y2           0.0       0.0       0.2       0.2       0.1       0.0
 3 C  s              12.1       0.9      18.0       9.4       0.0       0.3
 3 C  px              2.4       0.2       0.2       2.6       0.4      10.6
 3 C  py              0.1       8.2       0.3       0.1      13.6       0.3
 3 C  dz2             0.1       0.0       0.1       0.0       0.0       0.0
 3 C  dxy             0.0       0.2       0.0       0.0       0.2       0.0
 4 C  s              12.2      10.3       8.5       2.1       7.2       0.4
 4 C  px              0.3       3.8       3.9       7.9       4.8       1.4
 4 C  py              2.1       0.3       0.9       3.6       0.6       9.5
 4 C  dz2             0.1       0.1       0.1       0.0       0.0       0.0
 4 C  dx2y2           0.0       0.1       0.0       0.1       0.0       0.0
 4 C  dxy             0.0       0.0       0.2       0.1       0.0       0.0
 5 C  s              12.2      17.1       1.7       2.5       6.7       0.4
 5 C  px              1.0       0.8       4.6       3.9       5.8       4.3
 5 C  py              1.5       0.2       3.4       7.1       0.1       6.7
 5 C  dz2             0.1       0.1       0.0       0.0       0.0       0.0
 5 C  dx2y2           0.0       0.0       0.2       0.2       0.1       0.0
 6 H  s               1.7       0.2       4.4       6.4       0.0       5.1
 6 H  px              0.1       0.0       0.4       0.5       0.0       0.2
 7 H  s               1.7       2.5       2.1       1.4       5.0       5.1
 7 H  px              0.0       0.1       0.0       0.1       0.0       0.0
 7 H  py              0.1       0.2       0.2       0.1       0.4       0.2
 8 H  s               1.7       4.1       0.4       1.7       4.6       5.2
 8 H  px              0.1       0.2       0.0       0.2       0.1       0.1
 8 H  py              0.1       0.2       0.1       0.0       0.3       0.2
 9 H  s               1.7       0.2       4.4       6.4       0.0       5.0
 9 H  px              0.1       0.0       0.4       0.5       0.0       0.2
10 H  s               1.7       2.5       2.1       1.4       5.0       5.1
10 H  px              0.0       0.1       0.0       0.1       0.0       0.0
10 H  py              0.1       0.2       0.2       0.1       0.4       0.2
11 H  s               1.7       4.1       0.4       1.7       4.6       5.2
11 H  px              0.1       0.2       0.0       0.2       0.1       0.1
11 H  py              0.1       0.2       0.1       0.0       0.3       0.2

                     12        13        14        15        16        17   
                  -0.60659  -0.57877  -0.55578  -0.55339  -0.48723  -0.47029
                   1.00000   1.00000   1.00000   1.00000   1.00000   1.00000
                  --------  --------  --------  --------  --------  --------
 0 C  s               3.0       0.0       0.1       0.5       0.0       0.0
 0 C  pz              0.0       0.0       0.0       0.0      12.9       0.0
 0 C  px              5.3       0.2       1.6      18.6       1.6       2.5
 0 C  py              0.1      15.8       1.9       0.0       0.5       9.6
 0 C  dx2y2           0.4       0.0       0.1       0.1       0.2       0.0
 0 C  dxy             0.0       0.1       0.3       0.1       0.0       0.4
 1 C  s               3.0       0.0       0.2       0.3       0.0       0.0
 1 C  pz              0.0       0.0       0.0       0.0      12.5       0.0
 1 C  px              0.7      14.7       3.1       0.2       2.3       3.1
 1 C  py              4.5       1.5       6.4      12.5       0.3       8.1
 1 C  dx2y2           0.2       0.1       0.3       0.0       0.2       0.0
 1 C  dxy             0.2       0.1       0.0       0.3       0.0       0.6
 2 C  s               2.9       0.0       0.4       0.0       0.0       0.1
 2 C  pz              0.0       0.0       0.0       0.0      12.3       0.0
 2 C  px              2.1      10.4       8.3       0.1       2.4       2.1
 2 C  py              3.0       6.3      11.7       1.6       0.6       7.7
 2 C  dx2y2           0.0       0.1       0.0       0.4       0.1       0.0
 2 C  dxy             0.4       0.0       0.1       0.0       0.0       1.0
 3 C  s               3.0       0.0       0.1       0.5       0.0       0.0
 3 C  pz              0.1       0.0       0.0       0.1      13.5       0.0
 3 C  px              5.3       0.2       1.6      18.6       1.2       2.4
 3 C  py              0.1      15.8       2.0       0.0       0.5       9.5
 3 C  dx2y2           0.4       0.0       0.1       0.1       0.2       0.0
 3 C  dxy             0.0       0.1       0.3       0.1       0.0       0.4
 4 C  s               3.0       0.0       0.2       0.3       0.0       0.0
 4 C  pz              0.1       0.0       0.1       0.0      12.9       0.1
 4 C  px              0.7      14.7       3.1       0.2       2.2       3.1
 4 C  py              4.4       1.5       6.4      12.5       0.2       8.0
 4 C  dx2y2           0.2       0.1       0.3       0.0       0.1       0.0
 4 C  dxy             0.2       0.1       0.0       0.3       0.0       0.6
 5 C  s               2.9       0.0       0.4       0.0       0.0       0.1
 5 C  pz              0.0       0.0       0.0       0.0      12.2       0.0
 5 C  px              2.1      10.4       8.4       0.1       2.3       2.1
 5 C  py              3.1       6.3      11.7       1.6       0.8       7.7
 5 C  dx2y2           0.0       0.1       0.0       0.4       0.1       0.0
 5 C  dxy             0.4       0.0       0.1       0.0       0.0       1.0
 6 H  s               7.9       0.0       1.0       8.7       2.1       1.1
 6 H  pz              0.0       0.0       0.0       0.0       0.1       0.0
 6 H  px              0.4       0.0       0.0       0.2       0.0       0.0
 6 H  py              0.0       0.2       0.0       0.0       0.0       0.2
 7 H  s               7.6       0.0       4.2       5.7       1.3       4.0
 7 H  pz              0.0       0.0       0.0       0.0       0.1       0.0
 7 H  px              0.0       0.2       0.0       0.0       0.0       0.2
 7 H  py              0.3       0.0       0.1       0.1       0.0       0.0
 8 H  s               7.5       0.0       9.7       0.4       0.1       9.2
 8 H  pz              0.0       0.0       0.0       0.0       0.1       0.0
 8 H  px              0.1       0.1       0.1       0.0       0.0       0.1
 8 H  py              0.2       0.1       0.1       0.0       0.0       0.0
 9 H  s               7.9       0.0       1.0       8.7       1.9       1.1
 9 H  pz              0.0       0.0       0.0       0.0       0.1       0.0
 9 H  px              0.4       0.0       0.0       0.2       0.0       0.0
 9 H  py              0.0       0.2       0.0       0.0       0.0       0.2
10 H  s               7.6       0.0       4.3       5.7       1.1       4.0
10 H  pz              0.0       0.0       0.0       0.0       0.1       0.0
10 H  px              0.0       0.2       0.0       0.0       0.0       0.2
10 H  py              0.3       0.0       0.1       0.1       0.0       0.0
11 H  s               7.5       0.0       9.7       0.4       0.1       9.2
11 H  pz              0.0       0.0       0.0       0.0       0.1       0.0
11 H  px              0.1       0.1       0.1       0.0       0.0       0.1
11 H  py              0.2       0.1       0.1       0.0       0.0       0.0

                     18        19        20        21        22        23   
                  -0.46963  -0.34287  -0.33986   0.08490   0.08821   0.15234
                   1.00000   1.00000   1.00000   0.00000   0.00000   0.00000
                  --------  --------  --------  --------  --------  --------
 0 C  s               0.1       0.0       0.0       0.0       0.0       1.7
 0 C  pz              3.5       1.9      30.2      28.6       1.5       0.2
 0 C  px              5.9       0.0       0.1       0.1       0.0       1.5
 0 C  py              2.2       0.0       0.0       0.0       0.0       0.0
 0 C  dz2             0.0       0.0       0.0       0.0       0.0       0.1
 0 C  dxz             0.0       0.0       0.1       0.2       0.0       0.0
 0 C  dyz             0.0       0.6       0.0       0.0       1.4       0.0
 0 C  dx2y2           0.7       0.0       0.0       0.0       0.0       0.8
 1 C  s               0.0       0.0       0.0       0.0       0.0       1.7
 1 C  pz              4.0      16.7      15.3      13.7      16.4       0.1
 1 C  px              6.5       0.0       0.0       0.0       0.0       0.2
 1 C  py              1.7       0.0       0.0       0.0       0.0       1.4
 1 C  dz2             0.0       0.0       0.0       0.0       0.0       0.1
 1 C  dxz             0.0       0.3       0.2       0.5       0.8       0.0
 1 C  dyz             0.0       0.0       0.1       0.3       0.0       0.0
 1 C  dx2y2           0.5       0.0       0.0       0.0       0.0       0.5
 1 C  dxy             0.0       0.0       0.0       0.0       0.0       0.4
 2 C  s               0.0       0.0       0.0       0.0       0.0       1.7
 2 C  pz              4.2      29.5       2.5       2.7      27.5       0.0
 2 C  px              6.7       0.0       0.0       0.0       0.0       0.6
 2 C  py              2.3       0.0       0.0       0.0       0.0       1.0
 2 C  dz2             0.0       0.0       0.0       0.0       0.0       0.1
 2 C  dxz             0.0       0.1       0.3       0.7       0.3       0.0
 2 C  dyz             0.0       0.0       0.3       0.7       0.0       0.0
 2 C  dx2y2           0.3       0.0       0.0       0.0       0.0       0.0
 2 C  dxy             0.0       0.0       0.0       0.0       0.0       0.9
 3 C  s               0.1       0.0       0.0       0.0       0.0       1.7
 3 C  pz              2.7       1.9      30.1      28.7       1.4       0.2
 3 C  px              6.3       0.0       0.3       0.3       0.0       1.5
 3 C  py              2.1       0.0       0.0       0.0       0.0       0.0
 3 C  dz2             0.0       0.0       0.0       0.0       0.0       0.1
 3 C  dxz             0.1       0.0       0.1       0.2       0.0       0.0
 3 C  dyz             0.0       0.6       0.0       0.0       1.4       0.0
 3 C  dx2y2           0.7       0.0       0.0       0.0       0.0       0.8
 4 C  s               0.0       0.0       0.0       0.0       0.0       1.7
 4 C  pz              3.3      16.6      15.3      13.8      16.4       0.1
 4 C  px              6.6       0.0       0.0       0.0       0.0       0.2
 4 C  py              2.0       0.1       0.1       0.1       0.1       1.4
 4 C  dz2             0.0       0.0       0.0       0.0       0.0       0.1
 4 C  dxz             0.0       0.3       0.2       0.5       0.8       0.0
 4 C  dyz             0.0       0.0       0.1       0.3       0.0       0.0
 4 C  dx2y2           0.5       0.0       0.0       0.0       0.0       0.5
 4 C  dxy             0.0       0.0       0.0       0.0       0.0       0.4
 5 C  s               0.0       0.0       0.0       0.0       0.0       1.7
 5 C  pz              4.3      29.6       2.4       2.6      27.5       0.0
 5 C  px              6.8       0.0       0.0       0.0       0.0       0.6
 5 C  py              2.2       0.0       0.0       0.0       0.0       1.0
 5 C  dz2             0.0       0.0       0.0       0.0       0.0       0.1
 5 C  dxz             0.0       0.1       0.3       0.7       0.3       0.0
 5 C  dyz             0.0       0.0       0.3       0.7       0.0       0.0
 5 C  dx2y2           0.3       0.0       0.0       0.0       0.0       0.0
 5 C  dxy             0.0       0.0       0.0       0.0       0.0       0.9
 6 H  s               6.4       0.0       0.0       0.0       0.0      10.5
 6 H  pz              0.0       0.0       0.5       1.3       0.1       0.0
 6 H  px              0.1       0.0       0.0       0.0       0.0       1.8
 7 H  s               4.3       0.0       0.0       0.0       0.0      10.6
 7 H  pz              0.0       0.3       0.2       0.6       0.7       0.0
 7 H  px              0.0       0.0       0.0       0.0       0.0       0.3
 7 H  py              0.1       0.0       0.0       0.0       0.0       1.6
 8 H  s               0.2       0.0       0.0       0.1       0.0      10.3
 8 H  pz              0.0       0.5       0.0       0.1       1.2       0.0
 8 H  px              0.1       0.0       0.0       0.0       0.0       0.7
 8 H  py              0.1       0.0       0.0       0.0       0.0       1.1
 9 H  s               6.6       0.0       0.0       0.1       0.0      10.3
 9 H  pz              0.0       0.0       0.5       1.3       0.1       0.0
 9 H  px              0.1       0.0       0.0       0.0       0.0       1.8
10 H  s               4.5       0.0       0.0       0.1       0.0      10.5
10 H  pz              0.0       0.3       0.2       0.6       0.7       0.0
10 H  px              0.0       0.0       0.0       0.0       0.0       0.3
10 H  py              0.1       0.0       0.0       0.0       0.0       1.6
11 H  s               0.2       0.0       0.0       0.1       0.0      10.3
11 H  pz              0.0       0.5       0.0       0.1       1.2       0.0
11 H  px              0.1       0.0       0.0       0.0       0.0       0.7
11 H  py              0.1       0.0       0.0       0.0       0.0       1.1

                     24        25        26        27        28        29   
                   0.19153   0.19230   0.22560   0.22637   0.24592   0.27092
                   0.00000   0.00000   0.00000   0.00000   0.00000   0.00000
                  --------  --------  --------  --------  --------  --------
 0 C  s               0.4       1.3       1.9       2.8       2.0       0.0
 0 C  pz              0.0       0.0       0.0       0.0       0.0      14.6
 0 C  px              1.0       3.8       0.7       0.8       0.7       0.1
 0 C  py              0.3       0.2       0.2       0.3       0.0       0.0
 0 C  dz2             0.0       0.0       0.1       0.2       0.2       0.0
 0 C  dxz             0.0       0.0       0.0       0.0       0.0       0.4
 0 C  dx2y2           0.1       0.3       0.1       0.0       0.0       0.0
 0 C  dxy             0.0       0.1       0.1       0.1       0.0       0.0
 1 C  s               1.7       0.0       0.6       4.1       2.0       0.0
 1 C  pz              0.0       0.0       0.0       0.0       0.0      14.8
 1 C  px              0.6       0.3       0.2       0.4       0.1       0.0
 1 C  py              4.3       0.0       0.4       1.0       0.6       0.0
 1 C  dz2             0.1       0.0       0.0       0.3       0.2       0.0
 1 C  dyz             0.0       0.0       0.0       0.0       0.0       0.4
 1 C  dx2y2           0.2       0.1       0.1       0.0       0.0       0.0
 1 C  dxy             0.2       0.1       0.0       0.1       0.0       0.0
 2 C  s               0.5       1.2       4.6       0.1       1.9       0.0
 2 C  pz              0.0       0.0       0.0       0.0       0.0      14.8
 2 C  px              0.7       1.5       0.7       0.2       0.3       0.0
 2 C  py              1.0       2.2       0.8       0.3       0.4       0.0
 2 C  dz2             0.0       0.0       0.4       0.0       0.2       0.0
 2 C  dxz             0.0       0.0       0.0       0.0       0.0       0.2
 2 C  dyz             0.0       0.0       0.0       0.0       0.0       0.3
 2 C  dx2y2           0.0       0.1       0.0       0.1       0.0       0.0
 2 C  dxy             0.2       0.3       0.1       0.0       0.0       0.0
 3 C  s               0.4       1.3       1.9       2.9       1.9       0.0
 3 C  pz              0.0       0.0       0.0       0.0       0.0      14.4
 3 C  px              1.0       3.8       0.7       0.8       0.7       0.2
 3 C  py              0.3       0.2       0.2       0.3       0.0       0.0
 3 C  dz2             0.0       0.0       0.1       0.2       0.2       0.0
 3 C  dxz             0.0       0.0       0.0       0.0       0.0       0.4
 3 C  dx2y2           0.1       0.3       0.1       0.0       0.0       0.0
 3 C  dxy             0.0       0.1       0.1       0.1       0.0       0.0
 4 C  s               1.7       0.0       0.6       4.2       1.9       0.0
 4 C  pz              0.0       0.0       0.0       0.0       0.0      14.5
 4 C  px              0.6       0.3       0.2       0.4       0.1       0.0
 4 C  py              4.3       0.0       0.4       1.1       0.6       0.1
 4 C  dz2             0.1       0.0       0.0       0.3       0.2       0.0
 4 C  dyz             0.0       0.0       0.0       0.0       0.0       0.4
 4 C  dx2y2           0.2       0.1       0.1       0.0       0.0       0.0
 4 C  dxy             0.2       0.1       0.0       0.1       0.0       0.0
 5 C  s               0.5       1.2       4.6       0.1       1.9       0.0
 5 C  pz              0.0       0.0       0.0       0.0       0.0      14.8
 5 C  px              0.7       1.5       0.7       0.2       0.3       0.0
 5 C  py              1.0       2.1       0.8       0.3       0.4       0.0
 5 C  dz2             0.0       0.0       0.3       0.0       0.2       0.0
 5 C  dxz             0.0       0.0       0.0       0.0       0.0       0.2
 5 C  dyz             0.0       0.0       0.0       0.0       0.0       0.3
 5 C  dx2y2           0.0       0.1       0.0       0.1       0.0       0.0
 5 C  dxy             0.2       0.3       0.1       0.0       0.0       0.0
 6 H  s               4.8      17.2       8.7      12.8      12.1       0.1
 6 H  pz              0.0       0.0       0.0       0.0       0.0       1.4
 6 H  px              0.7       2.7       1.2       2.3       2.1       0.0
 6 H  py              0.1       0.0       0.5       0.0       0.1       0.0
 7 H  s              22.0       0.0       2.6      18.8      12.0       0.0
 7 H  pz              0.0       0.0       0.0       0.0       0.0       1.4
 7 H  px              0.5       0.0       0.6       0.2       0.3       0.0
 7 H  py              3.0       0.0       0.2       3.0       1.9       0.0
 8 H  s               6.3      16.0      21.6       0.6      11.5       0.0
 8 H  pz              0.0       0.0       0.0       0.0       0.0       1.4
 8 H  px              0.3       1.1       1.2       0.5       0.8       0.0
 8 H  py              0.7       1.4       2.4       0.0       1.3       0.0
 9 H  s               4.8      17.3       8.9      13.2      11.5       0.2
[...]
Weight generation scheme         WeightScheme... Becke
Basis function cutoff            BFCut       ...    1.0000e-11
Integration weight cutoff        WCut        ...    1.0000e-14
Grids for H and He will be reduced by one unit

# of grid points (after initial pruning)     ...   6852 (   0.0 sec)
# of grid points (after weights+screening)   ...   6482 (   0.0 sec)
nearest neighbour list constructed           ...    0.0 sec
Grid point re-assignment to atoms done       ...    0.0 sec
Grid point division into batches done        ...    0.0 sec
Reduced shell lists constructed in    0.0 sec

Total number of grid points                  ...     6482
Total number of batches                      ...      106
Average number of points per batch           ...       61
Average number of grid points per atom       ...      540
Average number of shells per batch           ...    48.14 (89.15%)
Average number of basis functions per batch  ...   104.00 (91.23%)
Average number of large shells per batch     ...    42.82 (88.95%)
Average number of large basis fcns per batch ...    92.39 (88.84%)
Maximum spatial batch extension              ...   4.22,  3.57, 39.19 au
Average spatial batch extension              ...   0.52,  0.51,  1.78 au


---------------
TD-DFT XC SETUP
---------------

DFT calculation                         ... on
Name of the grid file                   ... benzene_0_1_wb2plyp_def2-svp.tddft.grid_cis.tmp
Exchange functional (TD-DFT)            ... WB88
Correlation functional (TD-DFT)         ... LYP
 LDA part of GGA corr.  LDAOpt (TD-DFT) ... VWN-3
Hybrid DFT                              ... on
   Exchange mixing (TD-DFT)             ...  0.530
   GGA exch. scaling (TD-DFT)           ...  0.000
   GGA corr. scaling (TD-DFT)           ...  0.730
Range-Separated Exchange                ... on
   Range Range separation parameter mu  .... 0.300
   Max. amount of RS exchange (TD-DFT)  ...  0.470

Building densities             ... done
Calculating rho(r) on the grid ... done
Building xc-kernel on the grid ... done
                    *** TD-DFT CALCULATION INITIALIZED ***


------------------------
DAVIDSON-DIAGONALIZATION
------------------------

Dimension of the eigenvalue problem            ...   3906
Number of roots to be determined               ...     10
Maximum size of the expansion space            ...    100
Maximum number of iterations                   ...    100
Convergence tolerance for the residual         ...    2.500e-07
Convergence tolerance for the energies         ...    2.500e-07
Orthogonality tolerance                        ...    1.000e-14
Level Shift                                    ...    0.000e+00
Constructing the preconditioner                ... o.k.
Building the initial guess                     ... o.k.
Number of trial vectors determined             ...    100


                       ****Iteration    0****

   Memory handling for direct AO based CIS:
   Memory per vector needed      ...     1 MB
   Memory needed                 ...    24 MB
   Memory available              ...   512 MB
   Number of vectors per batch   ...   512
   Number of batches             ...     1
   Time for densities:     0.064
   Using LibInt in JK Direct
   Time for J+K (Direct):    22.448
   Time for XC-Integration:     0.707
   Time for Sigma-Completion:     0.155
   Size of expansion space: 30
   Lowest Energy          :     0.153476174615
   Maximum Energy change  :     0.316720316123 (vector 9)
   Maximum residual norm  :     0.029035097904

                       ****Iteration    1****
   Time for densities:     0.024
   Using LibInt in JK Direct
   Time for J+K (Direct):     6.023
   Time for XC-Integration:     0.250
   Time for Sigma-Completion:     0.051
   Size of expansion space: 40
   Lowest Energy          :     0.127145536730
   Maximum Energy change  :     0.026330637885 (vector 0)
   Maximum residual norm  :     0.001665683004

                       ****Iteration    2****
   Time for densities:     0.023
   Using LibInt in JK Direct
   Time for J+K (Direct):     6.044
   Time for XC-Integration:     0.263
   Time for Sigma-Completion:     0.057
   Size of expansion space: 50
   Lowest Energy          :     0.126928917721
   Maximum Energy change  :     0.011320902954 (vector 6)
   Maximum residual norm  :     0.002837223374

                       ****Iteration    3****
   Time for densities:     0.024
   Using LibInt in JK Direct
   Time for J+K (Direct):     5.983
   Time for XC-Integration:     0.263
   Time for Sigma-Completion:     0.054
   Size of expansion space: 60
   Lowest Energy          :     0.126915297120
   Maximum Energy change  :     0.012176018869 (vector 7)
   Maximum residual norm  :     0.001999731017

                       ****Iteration    4****
   Time for densities:     0.026
   Using LibInt in JK Direct
   Time for J+K (Direct):     5.818
   Time for XC-Integration:     0.271
   Time for Sigma-Completion:     0.053
   Size of expansion space: 70
   Lowest Energy          :     0.126914974448
   Maximum Energy change  :     0.003857177488 (vector 7)
   Maximum residual norm  :     0.000481406412

                       ****Iteration    5****
   Time for densities:     0.023
   Using LibInt in JK Direct
   Time for J+K (Direct):     6.164
   Time for XC-Integration:     0.263
   Time for Sigma-Completion:     0.057
   Size of expansion space: 80
   Lowest Energy          :     0.126914953811
   Maximum Energy change  :     0.001842635447 (vector 9)
   Maximum residual norm  :     0.000259003102

                       ****Iteration    6****
   Time for densities:     0.022
   Using LibInt in JK Direct
   Time for J+K (Direct):     6.134
   Time for XC-Integration:     0.268
   Time for Sigma-Completion:     0.059
   Size of expansion space: 90
   Lowest Energy          :     0.126914953417
   Maximum Energy change  :     0.000196881791 (vector 9)
   Maximum residual norm  :     0.000021315997

                       ****Iteration    7****
   Time for densities:     0.026
   Using LibInt in JK Direct
   Time for J+K (Direct):     6.373
   Time for XC-Integration:     0.273
   Time for Sigma-Completion:     0.063
   Size of expansion space: 100
   Lowest Energy          :     0.126914953411
   Maximum Energy change  :     0.000028262204 (vector 8)
   Maximum residual norm  :     0.000004396353
   Rebuilding the expansion space

                       ****Iteration    8****
   Time for densities:     0.048
   Using LibInt in JK Direct
   Time for J+K (Direct):    14.861
   Time for XC-Integration:     1.574
   Time for Sigma-Completion:     1.066
   Size of expansion space: 20
   Lowest Energy          :     0.126914953410
   Maximum Energy change  :     0.000003553409 (vector 8)
   Maximum residual norm  :     0.000000896375

                       ****Iteration    9****
   Time for densities:     0.021
   Using LibInt in JK Direct
   Time for J+K (Direct):     5.601
   Time for XC-Integration:     0.234
   Time for Sigma-Completion:     0.045
   Size of expansion space: 29
   Lowest Energy          :     0.126914953410
   Maximum Energy change  :     0.000000810265 (vector 8)
   Maximum residual norm  :     0.000000137193

      *** CONVERGENCE OF RESIDUAL NORM REACHED ***

Storing the converged CI vectors               ... benzene_0_1_wb2plyp_def2-svp.tddft.cis1

                 *** DAVIDSON DONE ***

Total time for solving the CIS problem:   113.236sec

------------------
DOUBLES CORRECTION (Double precision version)
------------------

The (D) correction will be scaled by  0.2700
Doing v(i,a)*T(i,a) terms (RI)                    ... ok
Doing u(i,j,a,b) terms for state   0              ... ok
Doing u(i,j,a,b) terms for state   1              ... ok
Doing u(i,j,a,b) terms for state   2              ... ok
Doing u(i,j,a,b) terms for state   3              ... ok
Doing u(i,j,a,b) terms for state   4              ... ok
Doing u(i,j,a,b) terms for state   5              ... ok
Doing u(i,j,a,b) terms for state   6              ... ok
Doing u(i,j,a,b) terms for state   7              ... ok
Doing u(i,j,a,b) terms for state   8              ... ok
Doing u(i,j,a,b) terms for state   9              ... ok

Contributions to the (D) correction(s) (in eV)

STATE  Final   Init.   Total   v(ext)   v(int)  v(3)    u
       omega   omega     (D)                             
-----------------------------------------------------------------------------
   0   3.774   3.454   0.320   0.413   0.647  -0.180  -0.560
   1   4.720   4.649   0.071   0.414   0.657  -0.022  -0.978
   2   4.729   4.661   0.068   0.414   0.657  -0.022  -0.981
   3   5.378   5.240   0.138   0.409   0.657  -0.044  -0.885
   4   5.290   5.595  -0.304   0.409   0.657  -0.030  -1.340
   5   6.404   6.239   0.165   0.397   0.651  -0.069  -0.814
   6   7.321   7.235   0.086   0.368   0.535  -0.050  -0.767
   7   7.386   7.301   0.085   0.365   0.535  -0.051  -0.764
   8   7.923   8.145  -0.222   0.411   0.507  -0.031  -1.108
   9   8.108   8.150  -0.042   0.103   0.650  -0.009  -0.786

(D)-timings
 V(i,a)*T(i,a) terms           ...     0.650 sec
 U(i,j,a,b) 3-internal         ...     0.361 sec
 U(i,j,a,b) 3-external         ...     5.500 sec
 U(i,j,a,b) pair terms         ...     2.074 sec
 Total measured time           ...    11.915 sec

 Time for (ab|v) I/O           ...     5.022 sec


-------------------------
TD-DFT/TDA EXCITED STATES
-------------------------

the weight of the individual excitations are printed if larger than 1.0e-02

STATE  1:  E=   0.138679 au      3.774 eV    30436.5 cm**-1
    16a ->  29a  :     0.018256 (c=  0.13511598)
    19a ->  22a  :     0.201816 (c= -0.44923907)
    20a ->  21a  :     0.266232 (c= -0.51597643)
    16b ->  29b  :     0.018256 (c= -0.13511598)
    19b ->  22b  :     0.201816 (c=  0.44923907)
    20b ->  21b  :     0.266232 (c=  0.51597643)

STATE  2:  E=   0.173454 au      4.720 eV    38068.7 cm**-1
    19a ->  21a  :     0.150480 (c= -0.38791722)
    19a ->  22a  :     0.113416 (c=  0.33677364)
    20a ->  21a  :     0.087054 (c= -0.29504926)
    20a ->  22a  :     0.145909 (c= -0.38198079)
    19b ->  21b  :     0.150480 (c=  0.38791722)
    19b ->  22b  :     0.113416 (c= -0.33677364)
    20b ->  21b  :     0.087054 (c=  0.29504926)
    20b ->  22b  :     0.145909 (c=  0.38198079)

STATE  3:  E=   0.173783 au      4.729 eV    38140.9 cm**-1
    19a ->  21a  :     0.103920 (c= -0.32236654)
    19a ->  22a  :     0.166968 (c= -0.40861731)
    20a ->  21a  :     0.129343 (c=  0.35964260)
    20a ->  22a  :     0.096650 (c= -0.31088514)
    19b ->  21b  :     0.103920 (c=  0.32236654)
    19b ->  22b  :     0.166968 (c=  0.40861731)
    20b ->  21b  :     0.129343 (c= -0.35964260)
    20b ->  22b  :     0.096650 (c=  0.31088514)

STATE  4:  E=   0.197625 au      5.378 eV    43373.8 cm**-1
    19a ->  21a  :     0.243082 (c= -0.49303298)
    20a ->  22a  :     0.255299 (c=  0.50527168)
    19b ->  21b  :     0.243082 (c=  0.49303298)
    20b ->  22b  :     0.255299 (c= -0.50527168)

STATE  5:  E=   0.194421 au      5.290 eV    42670.5 cm**-1
    19a ->  21a  :     0.250231 (c= -0.50023086)
    20a ->  22a  :     0.247604 (c=  0.49759857)
    19b ->  21b  :     0.250231 (c= -0.50023086)
    20b ->  22b  :     0.247604 (c=  0.49759857)

STATE  6:  E=   0.235354 au      6.404 eV    51654.3 cm**-1
    19a ->  22a  :     0.218493 (c=  0.46743209)
    20a ->  21a  :     0.264384 (c=  0.51418262)
    19b ->  22b  :     0.218493 (c=  0.46743209)
    20b ->  21b  :     0.264384 (c=  0.51418262)

STATE  7:  E=   0.269048 au      7.321 eV    59049.1 cm**-1
    16a ->  21a  :     0.201133 (c= -0.44847798)
    18a ->  21a  :     0.139635 (c= -0.37367750)
    20a ->  29a  :     0.147592 (c=  0.38417683)
    16b ->  21b  :     0.201133 (c=  0.44847798)
    18b ->  21b  :     0.139635 (c=  0.37367750)
    20b ->  29b  :     0.147592 (c= -0.38417683)

STATE  8:  E=   0.271420 au      7.386 eV    59569.8 cm**-1
    16a ->  22a  :     0.199182 (c=  0.44629774)
    18a ->  22a  :     0.141119 (c=  0.37565758)
    19a ->  29a  :     0.149281 (c= -0.38636957)
    16b ->  22b  :     0.199182 (c= -0.44629774)
    18b ->  22b  :     0.141119 (c= -0.37565758)
    19b ->  29b  :     0.149281 (c=  0.38636957)

STATE  9:  E=   0.291158 au      7.923 eV    63901.9 cm**-1
    13a ->  29a  :     0.012332 (c= -0.11104958)
    17a ->  21a  :     0.458330 (c= -0.67700080)
    13b ->  29b  :     0.012332 (c=  0.11104958)
    17b ->  21b  :     0.458330 (c=  0.67700080)

STATE 10:  E=   0.297966 au      8.108 eV    65395.9 cm**-1
    20a ->  23a  :     0.454191 (c=  0.67393686)
    20b ->  23b  :     0.454191 (c= -0.67393686)


-----------------------------
TD-DFT/TDA-EXCITATION SPECTRA
-----------------------------

Center of mass = (  0.0085, -0.0101,  0.0024)
Calculating the Dipole integrals                  ... done
Transforming integrals                            ... done
Calculating the Linear Momentum integrals         ... done
Transforming integrals                            ... done
Calculating angular momentum integrals            ... done
Transforming integrals                            ... done

-----------------------------------------------------------------------------
         ABSORPTION SPECTRUM VIA TRANSITION ELECTRIC DIPOLE MOMENTS
-----------------------------------------------------------------------------
State   Energy    Wavelength  fosc         T2        TX        TY        TZ  
        (cm-1)      (nm)                 (au**2)    (au)      (au)      (au) 
-----------------------------------------------------------------------------
   1   30436.5    328.6   0.000000000   0.00000   0.00000  -0.00000  -0.00000
   2   38068.7    262.7   0.000000000   0.00000   0.00000  -0.00000   0.00000
   3   38140.9    262.2   0.000000000   0.00000  -0.00000   0.00000  -0.00000
   4   43373.8    230.6   0.000000000   0.00000  -0.00000   0.00000   0.00000
   5   42670.5    234.4   0.000001018   0.00001  -0.00114  -0.00256  -0.00003
   6   51654.3    193.6   0.002020634   0.01288  -0.10808  -0.03457  -0.00100
   7   59049.1    169.4   0.000000000   0.00000  -0.00000  -0.00000   0.00000
   8   59569.8    167.9   0.000000000   0.00000   0.00000   0.00000   0.00000
   9   63901.9    156.5   0.000000000   0.00000  -0.00000  -0.00000  -0.00000
  10   65395.9    152.9   0.000000000   0.00000   0.00000  -0.00000  -0.00000

-----------------------------------------------------------------------------
         ABSORPTION SPECTRUM VIA TRANSITION VELOCITY DIPOLE MOMENTS
-----------------------------------------------------------------------------
State   Energy    Wavelength   fosc        P2         PX        PY        PZ  
        (cm-1)      (nm)                 (au**2)     (au)      (au)      (au) 
-----------------------------------------------------------------------------
   1   30436.5    328.6   0.000000000   0.00000  -0.00000  -0.00000   0.00000
   2   38068.7    262.7   0.000000000   0.00000  -0.00000   0.00000  -0.00000
   3   38140.9    262.2   0.000000000   0.00000  -0.00000   0.00000   0.00000
   4   43373.8    230.6   0.000000000   0.00000  -0.00000  -0.00000  -0.00000
   5   42670.5    234.4   0.000002776   0.00000   0.00019  -0.00088   0.00000
   6   51654.3    193.6   0.000002195   0.00000   0.00010  -0.00005  -0.00087
   7   59049.1    169.4   0.000000000   0.00000   0.00000   0.00000  -0.00000
   8   59569.8    167.9   0.000000000   0.00000   0.00000  -0.00000  -0.00000
   9   63901.9    156.5   0.000000000   0.00000   0.00000   0.00000   0.00000
  10   65395.9    152.9   0.000000000   0.00000  -0.00000   0.00000   0.00000

-------------------------------------------------------------------
                             CD SPECTRUM
-------------------------------------------------------------------
State  Energy     Wavelength     R         MX        MY        MZ   
       (cm-1)       (nm)     (1e40*cgs)   (au)      (au)      (au)  
-------------------------------------------------------------------
   1   30436.5    328.6      0.00000   0.00000  -0.00000  -0.00000
   2   38068.7    262.7      0.00000  -0.00000  -0.00000   0.00000
   3   38140.9    262.2      0.00000  -0.00000   0.00000  -0.00000
   4   43373.8    230.6     -0.00000   0.00000   0.00000  -0.00000
   5   42670.5    234.4      0.00049  -0.01067   0.00432   0.00011
   6   51654.3    193.6     -0.05298   0.00107  -0.00008  -0.00042
   7   59049.1    169.4     -0.00000   0.00000  -0.00000   0.00000
   8   59569.8    167.9     -0.00000  -0.00000  -0.00000   0.00000
   9   63901.9    156.5      0.00000  -0.00000  -0.00000  -0.00000
  10   65395.9    152.9      0.00000   0.00000  -0.00000  -0.00000

Total run time:      125.713 sec

           *** ORCA-CIS/TD-DFT FINISHED WITHOUT ERROR ***

-----------------------
CIS/TD-DFT TOTAL ENERGY
-----------------------

    E(SCF)  =   -231.291949840 Eh
    DE(CIS) =      0.138678971 Eh (Root  1)
    ----------------------------- ---------
    E(tot)  =   -231.153270869 Eh


-------------------------   --------------------
FINAL SINGLE POINT ENERGY      -231.153270868648
-------------------------   --------------------


                            ***************************************
                            *     ORCA property calculations      *
                            ***************************************


  WARNING: The energy has been calculated at the MP2 level but the densities
           used in the property calculations are still SCF densities
           MP2 response densities have not been calculated 
           use %mp2 Density relaxed end
           or  %mp2 Density unrelaxed end

                                    ---------------------
                                    Active property flags
                                    ---------------------
   (+) Dipole Moment


------------------------------------------------------------------------------
                       ORCA ELECTRIC PROPERTIES CALCULATION
------------------------------------------------------------------------------

Dipole Moment Calculation                       ... on
Quadrupole Moment Calculation                   ... off
Polarizability Calculation                      ... off
GBWName                                         ... benzene_0_1_wb2plyp_def2-svp.tddft.gbw
Electron density file                           ... benzene_0_1_wb2plyp_def2-svp.tddft.scfp
The origin for moment calculation is the CENTER OF MASS  = ( 0.008527, -0.010072  0.002436)

-------------
DIPOLE MOMENT
-------------
                                X             Y             Z
Electronic contribution:     -0.00308       0.00143       0.00643
Nuclear contribution   :      0.00328      -0.00205      -0.00969
                        -----------------------------------------
Total Dipole Moment    :      0.00020      -0.00062      -0.00326
                        -----------------------------------------
Magnitude (a.u.)       :      0.00333
Magnitude (Debye)      :      0.00845



--------------------
Rotational spectrum 
--------------------
 
Rotational constants in cm-1:     0.181149     0.179999     0.090350 
Rotational constants in MHz :  5430.705498  5396.234920  2708.627000 

 Dipole components along the rotational axes: 
x,y,z [a.u.] :    -0.000520     0.000429    -0.003256 
x,y,z [Debye]:    -0.001322     0.001089    -0.008277 

 

Timings for individual modules:

Sum of individual times         ...      156.102 sec (=   2.602 min)
GTO integral calculation        ...        3.307 sec (=   0.055 min)   2.1 %
SCF iterations                  ...       17.300 sec (=   0.288 min)  11.1 %
MP2 module                      ...        7.860 sec (=   0.131 min)   5.0 %
CIS module                      ...      127.636 sec (=   2.127 min)  81.8 %
                             ****ORCA TERMINATED NORMALLY****
TOTAL RUN TIME: 0 days 0 hours 2 minutes 38 seconds 603 msec
