
                                 *****************
                                 * O   R   C   A *
                                 *****************

           --- An Ab Initio, DFT and Semiempirical electronic structure package ---

                  #######################################################
                  #                        -***-                        #
                  #          Department of theory and spectroscopy      #
                  #               Directorship: Frank Neese             #
                  #        Max Planck Institute fuer Kohlenforschung    #
                  #                Kaiser Wilhelm Platz 1               #
                  #                 D-45470 Muelheim/Ruhr               #
                  #                      Germany                        #
                  #                                                     #
                  #                  All rights reserved                #
                  #                        -***-                        #
                  #######################################################


                         Program Version 4.2.0 -  RELEASE  -


 With contributions from (in alphabetic order):
   Daniel Aravena         : Magnetic Suceptibility
   Michael Atanasov       : Ab Initio Ligand Field Theory (pilot matlab implementation)
   Alexander A. Auer      : GIAO ZORA, VPT2
   Ute Becker             : Parallelization
   Giovanni Bistoni       : ED, misc. LED, open-shell LED, HFLED
   Martin Brehm           : Molecular dynamics
   Dmytro Bykov           : SCF Hessian
   Vijay G. Chilkuri      : MRCI spin determinant printing, contributions to CSF-ICE
   Dipayan Datta          : RHF DLPNO-CCSD density
   Achintya Kumar Dutta   : EOM-CC, STEOM-CC
   Dmitry Ganyushin       : Spin-Orbit,Spin-Spin,Magnetic field MRCI
   Miquel Garcia          : C-PCM Hessian, Gaussian charge scheme
   Yang Guo               : DLPNO-NEVPT2, CIM, IAO-localization
   Andreas Hansen         : Spin unrestricted coupled pair/coupled cluster methods
   Benjamin Helmich-Paris : CASSCF linear response (MC-RPA)
   Lee Huntington         : MR-EOM, pCC
   Robert Izsak           : Overlap fitted RIJCOSX, COSX-SCS-MP3, EOM
   Christian Kollmar      : KDIIS, OOCD, Brueckner-CCSD(T), CCSD density
   Simone Kossmann        : Meta GGA functionals, TD-DFT gradient, OOMP2, MP2 Hessian
   Martin Krupicka        : AUTO-CI
   Lucas Lang             : DCDCAS
   Dagmar Lenk            : GEPOL surface, SMD
   Dimitrios Liakos       : Extrapolation schemes; Compound Job, initial MDCI parallelization
   Dimitrios Manganas     : Further ROCIS development; embedding schemes
   Dimitrios Pantazis     : SARC Basis sets
   Taras Petrenko         : DFT Hessian,TD-DFT gradient, ASA, ECA, R-Raman, ABS, FL, XAS/XES, NRVS
   Peter Pinski           : DLPNO-MP2, DLPNO-MP2 Gradient
   Christoph Reimann      : Effective Core Potentials
   Marius Retegan         : Local ZFS, SOC
   Christoph Riplinger    : Optimizer, TS searches, QM/MM, DLPNO-CCSD(T), (RO)-DLPNO pert. Triples
   Tobias Risthaus        : Range-separated hybrids, TD-DFT gradient, RPA, STAB
   Michael Roemelt        : Original ROCIS implementation
   Masaaki Saitow         : Open-shell DLPNO-CCSD energy and density
   Barbara Sandhoefer     : DKH picture change effects
   Avijit Sen             : IP-ROCIS
   Kantharuban Sivalingam : CASSCF convergence, NEVPT2, FIC-MRCI
   Bernardo de Souza      : ESD, SOC TD-DFT
   Georgi Stoychev        : AutoAux, RI-MP2 NMR
   Willem Van den Heuvel  : Paramagnetic NMR
   Boris Wezisla          : Elementary symmetry handling
   Frank Wennmohs         : Technical directorship


 We gratefully acknowledge several colleagues who have allowed us to
 interface, adapt or use parts of their codes:
   Stefan Grimme, W. Hujo, H. Kruse,             : VdW corrections, initial TS optimization,
                  C. Bannwarth                     DFT functionals, gCP, sTDA/sTD-DF
   Ed Valeev, F. Pavosevic, A. Kumar             : LibInt (2-el integral package), F12 methods
   Garnet Chan, S. Sharma, J. Yang, R. Olivares  : DMRG
   Ulf Ekstrom                                   : XCFun DFT Library
   Mihaly Kallay                                 : mrcc  (arbitrary order and MRCC methods)
   Andreas Klamt, Michael Diedenhofen            : otool_cosmo (COSMO solvation model)
   Jiri Pittner, Ondrej Demel                    : Mk-CCSD
   Frank Weinhold                                : gennbo (NPA and NBO analysis)
   Christopher J. Cramer and Donald G. Truhlar   : smd solvation model
   Lars Goerigk                                  : TD-DFT with DH, B97 family of functionals
   V. Asgeirsson, H. Jonsson                     : NEB implementation
   FAccTs GmbH                                   : IRC, NEB, NEB-TS, Multilevel, MM, QM/MM, CI optimization
   S Lehtola, MJT Oliveira, MAL Marques          : LibXC Library


 Your calculation uses the libint2 library for the computation of 2-el integrals
 For citations please refer to: http://libint.valeyev.net

 Your ORCA version has been built with support for libXC version: 4.2.3
 For citations please refer to: https://tddft.org/programs/libxc/

 This ORCA versions uses:
   CBLAS   interface :  Fast vector & matrix operations
   LAPACKE interface :  Fast linear algebra routines
   SCALAPACK package :  Parallel linear algebra routines


----- Orbital basis set information -----
Your calculation utilizes the basis: def2-QZVPP
   F. Weigend and R. Ahlrichs, Phys. Chem. Chem. Phys. 7, 3297 (2005).

================================================================================
                                        WARNINGS
                       Please study these warnings very carefully!
================================================================================


INFO   : the flag for use of LIBINT has been found!

================================================================================
                                       INPUT FILE
================================================================================
NAME = H2_0_1_RHF_def2-qzvpp.sp.inp
|  1> !rhf def2-qzvpp tightscf
|  2> !normalprint
|  3> 
|  4> %paras
|  5>   rHH [19.952623149688797 16.43574799372698 13.538761800225439 11.152402139117903 9.1866653175426 7.567411809920191 6.233570019315557 5.134832907437553 4.229760619613384 3.4842175435383975 2.870084854071569 2.3641999865500756 1.9474830399087562 1.6042171611153242 1.32145576997553 1.088534267260644 0.8966678097917788 0.7386199822079362 0.6084298690766428 0.5011872336272722]
|  6> end
|  7> 
|  8> %scf
|  9>   maxiter 500
| 10> end
| 11> 
| 12> *int 0 1
| 13> H 0 0 0 0 0 0
| 14> H 1 0 0 {rHH} 0 0
| 15> *
| 16> 
| 17>                          ****END OF INPUT****
================================================================================

                       ******************************
                       * Parameter Scan Calculation *
                       ******************************

Trajectory settings:
    -> SCF surface will be mapped

There are 1 parameter(s) to be scanned
           RHH: user defined at 20 points
There will be   20 energy evaluations


         *************************************************************
                                TRAJECTORY STEP   1
                RHH  :  19.95262315
         *************************************************************
---------------------------------
CARTESIAN COORDINATES (ANGSTROEM)
---------------------------------
  H      0.000000    0.000000    0.000000
  H     19.952623    0.000000    0.000000

----------------------------
CARTESIAN COORDINATES (A.U.)
----------------------------
  NO LB      ZA    FRAG     MASS         X           Y           Z
   0 H     1.0000    0     1.008    0.000000    0.000000    0.000000
   1 H     1.0000    0     1.008   37.704993    0.000000    0.000000

--------------------------------
INTERNAL COORDINATES (ANGSTROEM)
--------------------------------
 H      0   0   0     0.000000000000     0.00000000     0.00000000
 H      1   0   0    19.952623149689     0.00000000     0.00000000

---------------------------
INTERNAL COORDINATES (A.U.)
---------------------------
 H      0   0   0     0.000000000000     0.00000000     0.00000000
 H      1   0   0    37.704993406249     0.00000000     0.00000000

---------------------
BASIS SET INFORMATION
---------------------
There are 1 groups of distinct atoms

 Group   1 Type H   : 7s3p2d1f contracted to 4s3p2d1f pattern {4111/111/11/1}

Atom   0H    basis set group =>   1
Atom   1H    basis set group =>   1
------------------------------------------------------------------------------
                           ORCA GTO INTEGRAL CALCULATION
------------------------------------------------------------------------------

                         BASIS SET STATISTICS AND STARTUP INFO

 # of primitive gaussian shells          ...   26
 # of primitive gaussian functions       ...   66
 # of contracted shells                  ...   20
 # of contracted basis functions         ...   60
 Highest angular momentum                ...    3
 Maximum contraction depth               ...    4
 Integral package used                   ... LIBINT
 Integral threshhold            Thresh   ...  2.500e-11
 Primitive cut-off              TCut     ...  2.500e-12


------------------------------ INTEGRAL EVALUATION ----------------------------


 * One electron integrals 
 Pre-screening matrix                    ... done
 Shell pair data                         ... done (   0.000 sec)

-------------------------------------------------------------------------------
                                 ORCA SCF
-------------------------------------------------------------------------------

------------
SCF SETTINGS
------------
Hamiltonian:
 Ab initio Hamiltonian  Method          .... Hartree-Fock(GTOs)


General Settings:
 Integral files         IntName         .... H2_0_1_RHF_def2-qzvpp.sp
 Hartree-Fock type      HFTyp           .... RHF
 Total Charge           Charge          ....    0
 Multiplicity           Mult            ....    1
 Number of Electrons    NEL             ....    2
 Basis Dimension        Dim             ....   60
 Nuclear Repulsion      ENuc            ....      0.0265216861 Eh

Convergence Acceleration:
 DIIS                   CNVDIIS         .... on
   Start iteration      DIISMaxIt       ....    12
   Startup error        DIISStart       ....  0.200000
   # of expansion vecs  DIISMaxEq       ....     5
   Bias factor          DIISBfac        ....   1.050
   Max. coefficient     DIISMaxC        ....  10.000
 Newton-Raphson         CNVNR           .... off
 SOSCF                  CNVSOSCF        .... on
   Start iteration      SOSCFMaxIt      ....   150
   Startup grad/error   SOSCFStart      ....  0.003300
 Level Shifting         CNVShift        .... on
   Level shift para.    LevelShift      ....    0.2500
   Turn off err/grad.   ShiftErr        ....    0.0010
 Zerner damping         CNVZerner       .... off
 Static damping         CNVDamp         .... on
   Fraction old density DampFac         ....    0.7000
   Max. Damping (<1)    DampMax         ....    0.9800
   Min. Damping (>=0)   DampMin         ....    0.0000
   Turn off err/grad.   DampErr         ....    0.1000
 Fernandez-Rico         CNVRico         .... off

SCF Procedure:
 Maximum # iterations   MaxIter         ....   500
 SCF integral mode      SCFMode         .... Direct
   Integral package                     .... LIBINT
 Reset frequency        DirectResetFreq ....    20
 Integral Threshold     Thresh          ....  2.500e-11 Eh
 Primitive CutOff       TCut            ....  2.500e-12 Eh

Convergence Tolerance:
 Convergence Check Mode ConvCheckMode   .... Total+1el-Energy
 Convergence forced     ConvForced      .... 0
 Energy Change          TolE            ....  1.000e-08 Eh
 1-El. energy change                    ....  1.000e-05 Eh
 Orbital Gradient       TolG            ....  1.000e-05
 Orbital Rotation angle TolX            ....  1.000e-05
 DIIS Error             TolErr          ....  5.000e-07


Diagonalization of the overlap matrix:
Smallest eigenvalue                        ... 3.391e-02
Time for diagonalization                   ...    0.001 sec
Threshold for overlap eigenvalues          ... 1.000e-08
Number of eigenvalues below threshold      ... 0
Time for construction of square roots      ...    0.003 sec
Total time needed                          ...    0.004 sec

-------------------
DFT GRID GENERATION
-------------------

General Integration Accuracy     IntAcc      ...  4.340
Radial Grid Type                 RadialGrid  ... Gauss-Chebyshev
Angular Grid (max. acc.)         AngularGrid ... Lebedev-110
Angular grid pruning method      GridPruning ... 3 (G Style)
Weight generation scheme         WeightScheme... Becke
Basis function cutoff            BFCut       ...    1.0000e-11
Integration weight cutoff        WCut        ...    1.0000e-14
Grids for H and He will be reduced by one unit

# of grid points (after initial pruning)     ...   1588 (   0.0 sec)
# of grid points (after weights+screening)   ...   1588 (   0.0 sec)
nearest neighbour list constructed           ...    0.0 sec
Grid point re-assignment to atoms done       ...    0.0 sec
Grid point division into batches done        ...    0.0 sec
Reduced shell lists constructed in    0.0 sec

Total number of grid points                  ...     1588
Total number of batches                      ...       26
Average number of points per batch           ...       61
Average number of grid points per atom       ...      794
Average number of shells per batch           ...     9.63 (48.15%)
Average number of basis functions per batch  ...    28.89 (48.15%)
Average number of large shells per batch     ...     9.63 (100.00%)
Average number of large basis fcns per batch ...    28.89 (100.00%)
Maximum spatial batch extension              ...  17.62, 21.59, 21.59 au
Average spatial batch extension              ...   6.09,  8.92,  9.49 au

Time for grid setup =    0.006 sec

------------------------------
INITIAL GUESS: MODEL POTENTIAL
------------------------------
Loading Hartree-Fock densities                     ... done
Calculating cut-offs                               ... done
Setting up the integral package                    ... done
Initializing the effective Hamiltonian             ... done
Starting the Coulomb interaction                   ... done (   0.0 sec)
Reading the grid                                   ... done
Mapping shells                                     ... done
Starting the XC term evaluation                    ... done (   0.0 sec)
Transforming the Hamiltonian                       ... done (   0.0 sec)
Diagonalizing the Hamiltonian                      ... done (   0.0 sec)
Back transforming the eigenvectors                 ... done (   0.0 sec)
Now organizing SCF variables                       ... done
                      ------------------
                      INITIAL GUESS DONE (   0.1 sec)
                      ------------------
--------------
SCF ITERATIONS
--------------
               ***  Starting incremental Fock matrix formation  ***

                         ----------------------------
                         !        ITERATION     0   !
                         ----------------------------
   Total Energy        :      -0.458638491879 Eh
   Energy Change       :      -0.458638491879 Eh
   MAX-DP              :       0.134844205050
   RMS-DP              :       0.004440818170
   Actual Damping      :       0.7000
   Actual Level Shift  :       0.2500 Eh


                         ----------------------------
                         !        ITERATION     1   !
                         ----------------------------
   Total Energy        :      -0.667504629447 Eh
   Energy Change       :      -0.208866137568 Eh
   MAX-DP              :       0.082405114459
   RMS-DP              :       0.003074496147
   Actual Damping      :       0.7000
   Actual Level Shift  :       0.2500 Eh

                               ***Turning on DIIS***

                         ----------------------------
                         !        ITERATION     2   !
                         ----------------------------
   Total Energy        :      -0.703576952679 Eh
   Energy Change       :      -0.036072323232 Eh
   MAX-DP              :       0.232421790963
   RMS-DP              :       0.007626354694
   Actual Damping      :       0.0000
   Actual Level Shift  :       0.2500 Eh
   DIIS-Error          :       0.062377576993


                         ----------------------------
                         !        ITERATION     3   !
                         ----------------------------
   Total Energy        :      -0.785959958671 Eh
   Energy Change       :      -0.082383005992 Eh
   MAX-DP              :       0.012165158157
   RMS-DP              :       0.000253990735
   Actual Damping      :       0.7000
   Actual Level Shift  :       0.2500 Eh
   DIIS-Error          :       0.168417319101
   DIIS coefficients:
      1.41217  -0.41217


                         ----------------------------
                         !        ITERATION     4   !
                         ----------------------------
   Total Energy        :      -0.789030737332 Eh
   Energy Change       :      -0.003070778661 Eh
   MAX-DP              :       0.014008744921
   RMS-DP              :       0.000294744722
   Actual Damping      :       0.7000
   Actual Level Shift  :       0.2500 Eh
   DIIS-Error          :       0.178148831722
   DIIS coefficients:
      1.41888  -0.16562  -0.25326


                         ----------------------------
                         !        ITERATION     5   !
                         ----------------------------
   Total Energy        :      -0.787779184448 Eh
   Energy Change       :       0.001251552884 Eh
   MAX-DP              :       0.010862044443
   RMS-DP              :       0.000231014028
   Actual Damping      :       0.7000
   Actual Level Shift  :       0.2500 Eh
   DIIS-Error          :       0.188171316514
   DIIS coefficients:
      1.40620  -0.05486  -0.14297  -0.20837


                         ----------------------------
                         !        ITERATION     6   !
                         ----------------------------
   Total Energy        :      -0.785338212192 Eh
   Energy Change       :       0.002440972255 Eh
   MAX-DP              :       0.006634462568
   RMS-DP              :       0.000140698071
   Actual Damping      :       0.7000
   Actual Level Shift  :       0.2500 Eh
   DIIS-Error          :       0.195286683057
   DIIS coefficients:
      1.38963   0.01031  -0.07700  -0.14227  -0.18067


                         ----------------------------
                         !        ITERATION     7   !
                         ----------------------------
   Total Energy        :      -0.485553041255 Eh
   Energy Change       :       0.299785170938 Eh
   MAX-DP              :       0.134844205037
   RMS-DP              :       0.004456897307
   Actual Damping      :       0.7000
   Actual Level Shift  :       0.2500 Eh
   DIIS-Error          :       0.199594353167
   DIIS coefficients:
     -1.18597   4.58975  -0.48274  -0.85129  -1.06975


                         ----------------------------
                         !        ITERATION     8   !
                         ----------------------------
   Total Energy        :      -0.696579570134 Eh
   Energy Change       :      -0.211026528879 Eh
   MAX-DP              :       0.240472512025
   RMS-DP              :       0.010361519133
   Actual Damping      :       0.0000
   Actual Level Shift  :       0.2500 Eh
   DIIS-Error          :       0.077529255293
   DIIS coefficients:
     -0.19260   1.55118  -0.05906  -0.12903  -0.17048


                         ----------------------------
                         !        ITERATION     9   !
                         ----------------------------
   Total Energy        :      -0.766486607970 Eh
   Energy Change       :      -0.069907037837 Eh
   MAX-DP              :       0.008354021711
   RMS-DP              :       0.000180820395
   Actual Damping      :       0.7000
   Actual Level Shift  :       0.2500 Eh
   DIIS-Error          :       0.199223838303
   DIIS coefficients:
     -0.26730   2.06966  -0.27173  -0.26420  -0.26643


                         ----------------------------
                         !        ITERATION    10   !
                         ----------------------------
   Total Energy        :      -0.771542890022 Eh
   Energy Change       :      -0.005056282052 Eh
   MAX-DP              :       0.007531383219
   RMS-DP              :       0.000160569853
   Actual Damping      :       0.7000
   Actual Level Shift  :       0.2500 Eh
   DIIS-Error          :       0.200099356817
   DIIS coefficients:
     -0.38144   2.03401  -0.13354  -0.13698  -0.38205


                         ----------------------------
                         !        ITERATION    11   !
                         ----------------------------
   Total Energy        :      -0.775141067897 Eh
   Energy Change       :      -0.003598177874 Eh
   MAX-DP              :       0.005405259579
   RMS-DP              :       0.000113301689
   Actual Damping      :       0.7000
   Actual Level Shift  :       0.2500 Eh
   DIIS-Error          :       0.201276831076
   DIIS coefficients:
     -0.69011   1.93684  -0.07799  -0.08198  -0.08676


                         ----------------------------
                         !        ITERATION    12   !
                         ----------------------------
   Total Energy        :      -0.791734676906 Eh
   Energy Change       :      -0.016593609010 Eh
   MAX-DP              :       0.005137436984
   RMS-DP              :       0.000110088561
   Actual Damping      :       0.7000
   Actual Level Shift  :       0.2500 Eh
   DIIS-Error          :       0.202493286352
   DIIS coefficients:
     -0.01569   0.97109   0.02673   0.01671   0.00116


                         ----------------------------
                         !        ITERATION    13   !
                         ----------------------------
   Total Energy        :      -0.455651995130 Eh
   Energy Change       :       0.336082681777 Eh
   MAX-DP              :       0.134844205067
   RMS-DP              :       0.004455839335
   Actual Damping      :       0.7000
   Actual Level Shift  :       0.2500 Eh
   DIIS-Error          :       0.203667460745
   DIIS coefficients:
      0.08148   0.16512   0.31471   0.26225   0.17644


                         ----------------------------
                         !        ITERATION    14   !
                         ----------------------------
   Total Energy        :      -0.696973375443 Eh
   Energy Change       :      -0.241321380313 Eh
   MAX-DP              :       0.244222030898
   RMS-DP              :       0.010358975811
   Actual Damping      :       0.0000
   Actual Level Shift  :       0.2500 Eh
   DIIS-Error          :       0.080106052067
   DIIS coefficients:
     -0.14002  -0.14372   1.55092  -0.13163  -0.13555


                         ----------------------------
                         !        ITERATION    15   !
                         ----------------------------
   Total Energy        :      -0.767573985275 Eh
   Energy Change       :      -0.070600609832 Eh
   MAX-DP              :       0.008259854577
   RMS-DP              :       0.000177844574
   Actual Damping      :       0.7000
   Actual Level Shift  :       0.2500 Eh
   DIIS-Error          :       0.199242515072
   DIIS coefficients:
     -0.26202  -0.26149   2.05509  -0.26922  -0.26237


                         ----------------------------
                         !        ITERATION    16   !
                         ----------------------------
   Total Energy        :      -0.770588384601 Eh
   Energy Change       :      -0.003014399326 Eh
   MAX-DP              :       0.007620937136
   RMS-DP              :       0.000163540912
   Actual Damping      :       0.7000
   Actual Level Shift  :       0.2500 Eh
   DIIS-Error          :       0.200247836608
   DIIS coefficients:
     -0.38443  -0.38355   2.03782  -0.13304  -0.13679


                         ----------------------------
                         !        ITERATION    17   !
                         ----------------------------
   Total Energy        :      -0.772894649652 Eh
   Energy Change       :      -0.002306265051 Eh
   MAX-DP              :       0.005727383676
   RMS-DP              :       0.000122479491
   Actual Damping      :       0.7000
   Actual Level Shift  :       0.2500 Eh
   DIIS-Error          :       0.201266866333
   DIIS coefficients:
     -0.08646  -0.70220   1.94811  -0.07744  -0.08201


                         ----------------------------
                         !        ITERATION    18   !
                         ----------------------------
   Total Energy        :      -0.787984865320 Eh
   Energy Change       :      -0.015090215668 Eh
   MAX-DP              :       0.005774199962
   RMS-DP              :       0.000128982878
   Actual Damping      :       0.7000
   Actual Level Shift  :       0.2500 Eh
   DIIS-Error          :       0.202133665343
   DIIS coefficients:
      0.00288  -0.00886   0.96033   0.02920   0.01645


                         ----------------------------
                         !        ITERATION    19   !
                         ----------------------------
   Total Energy        :      -0.456019583576 Eh
   Energy Change       :       0.331965281744 Eh
   MAX-DP              :       0.134844205067
   RMS-DP              :       0.004456291395
   Actual Damping      :       0.7000
   Actual Level Shift  :       0.2500 Eh
   DIIS-Error          :       0.202713554086
   DIIS coefficients:
      0.08625   0.02500   0.51095   0.22135   0.15645

               *** Restarting incremental Fock matrix formation ***
                                   *** Resetting DIIS ***

                         ----------------------------
                         !        ITERATION    20   !
                         ----------------------------
   Total Energy        :      -0.666620732114 Eh
   Energy Change       :      -0.210601148538 Eh
   MAX-DP              :       0.274683714961
   RMS-DP              :       0.010284823436
   Actual Damping      :       0.0000
   Actual Level Shift  :       0.2500 Eh
   DIIS-Error          :       0.079497041591


                         ----------------------------
                         !        ITERATION    21   !
                         ----------------------------
   Total Energy        :      -0.802841171849 Eh
   Energy Change       :      -0.136220439734 Eh
   MAX-DP              :       0.012654543779
   RMS-DP              :       0.000316299215
   Actual Damping      :       0.7000
   Actual Level Shift  :       0.2500 Eh
   DIIS-Error          :       0.241419967533
   DIIS coefficients:
      0.99696   0.00304


                         ----------------------------
                         !        ITERATION    22   !
                         ----------------------------
   Total Energy        :      -0.801594299710 Eh
   Energy Change       :       0.001246872138 Eh
   MAX-DP              :       0.014382294022
   RMS-DP              :       0.000358251753
   Actual Damping      :       0.7000
   Actual Level Shift  :       0.2500 Eh
   DIIS-Error          :       0.235371920086
   DIIS coefficients:
      0.99414  -0.03042   0.03628


                         ----------------------------
                         !        ITERATION    23   !
                         ----------------------------
   Total Energy        :      -0.799698783393 Eh
   Energy Change       :       0.001895516317 Eh
   MAX-DP              :       0.012693444654
   RMS-DP              :       0.000314543418
   Actual Damping      :       0.7000
   Actual Level Shift  :       0.2500 Eh
   DIIS-Error          :       0.229277095317
   DIIS coefficients:
      0.98927  -0.06473   0.00084   0.07462


                         ----------------------------
                         !        ITERATION    24   !
                         ----------------------------
   Total Energy        :      -0.797242079364 Eh
   Energy Change       :       0.002456704029 Eh
   MAX-DP              :       0.010665065489
   RMS-DP              :       0.000261829379
   Actual Damping      :       0.7000
   Actual Level Shift  :       0.2500 Eh
   DIIS-Error          :       0.224140227423
   DIIS coefficients:
      0.98223  -0.09692  -0.03257   0.03987   0.10739


                         ----------------------------
                         !        ITERATION    25   !
                         ----------------------------
   Total Energy        :      -0.466906157128 Eh
   Energy Change       :       0.330335922236 Eh
   MAX-DP              :       0.134844205060
   RMS-DP              :       0.004451328395
   Actual Damping      :       0.7000
   Actual Level Shift  :       0.2500 Eh
   DIIS-Error          :       0.219853543721
   DIIS coefficients:
      4.15616  -1.27365  -0.96715  -0.62007  -0.29530


                         ----------------------------
                         !        ITERATION    26   !
                         ----------------------------
   Total Energy        :      -0.697391727571 Eh
   Energy Change       :      -0.230485570443 Eh
   MAX-DP              :       0.254084730834
   RMS-DP              :       0.010352662190
   Actual Damping      :       0.0000
   Actual Level Shift  :       0.2500 Eh
   DIIS-Error          :       0.090505082648
   DIIS coefficients:
     -0.11386   1.56721  -0.17113  -0.15073  -0.13148


                         ----------------------------
                         !        ITERATION    27   !
                         ----------------------------
   Total Energy        :      -0.763917455216 Eh
   Energy Change       :      -0.066525727645 Eh
   MAX-DP              :       0.008485087457
   RMS-DP              :       0.000184557706
   Actual Damping      :       0.7000
   Actual Level Shift  :       0.2500 Eh
   DIIS-Error          :       0.198054623662
   DIIS coefficients:
     -0.26915   2.08150  -0.27077  -0.27128  -0.27029


                         ----------------------------
                         !        ITERATION    28   !
                         ----------------------------
   Total Energy        :      -0.764537304623 Eh
   Energy Change       :      -0.000619849407 Eh
   MAX-DP              :       0.008166269046
   RMS-DP              :       0.000179758099
   Actual Damping      :       0.7000
   Actual Level Shift  :       0.2500 Eh
   DIIS-Error          :       0.198857427562
   DIIS coefficients:
     -0.40402   2.08002  -0.13401  -0.13776  -0.40423


                         ----------------------------
                         !        ITERATION    29   !
                         ----------------------------
   Total Energy        :      -0.764383157760 Eh
   Energy Change       :       0.000154146863 Eh
   MAX-DP              :       0.006665966028
   RMS-DP              :       0.000150168462
   Actual Damping      :       0.7000
   Actual Level Shift  :       0.2500 Eh
   DIIS-Error          :       0.199351509477
   DIIS coefficients:
     -0.74667   1.98951  -0.07694  -0.08145  -0.08445


                         ----------------------------
                         !        ITERATION    30   !
                         ----------------------------
   Total Energy        :      -0.772192781381 Eh
   Energy Change       :      -0.007809623620 Eh
   MAX-DP              :       0.008244476945
   RMS-DP              :       0.000202792936
   Actual Damping      :       0.7000
   Actual Level Shift  :       0.2500 Eh
   DIIS-Error          :       0.199377796621
   DIIS coefficients:
      0.01882   0.91510   0.03099   0.02010   0.01500


                         ----------------------------
                         !        ITERATION    31   !
                         ----------------------------
   Total Energy        :      -0.459075433528 Eh
   Energy Change       :       0.313117347853 Eh
   MAX-DP              :       0.134844205067
   RMS-DP              :       0.004458771219
   Actual Damping      :       0.7000
   Actual Level Shift  :       0.2500 Eh
   DIIS-Error          :       0.197867070406
   DIIS coefficients:
     -0.17620   1.68175  -0.13341  -0.17673  -0.19542


                         ----------------------------
                         !        ITERATION    32   !
                         ----------------------------
   Total Energy        :      -0.696147316350 Eh
   Energy Change       :      -0.237071882822 Eh
   MAX-DP              :       0.242429583718
   RMS-DP              :       0.010358673068
   Actual Damping      :       0.0000
   Actual Level Shift  :       0.2500 Eh
   DIIS-Error          :       0.076404531440
   DIIS coefficients:
     -0.13233  -0.12263   1.52223  -0.13347  -0.13380


                         ----------------------------
                         !        ITERATION    33   !
                         ----------------------------
   Total Energy        :      -0.771659077321 Eh
   Energy Change       :      -0.075511760971 Eh
   MAX-DP              :       0.008187954976
   RMS-DP              :       0.000175895796
   Actual Damping      :       0.7000
   Actual Level Shift  :       0.2500 Eh
   DIIS-Error          :       0.201343344539
   DIIS coefficients:
     -0.24921  -0.24815   2.00937  -0.26210  -0.24990


                         ----------------------------
                         !        ITERATION    34   !
                         ----------------------------
   Total Energy        :      -0.774070622931 Eh
   Energy Change       :      -0.002411545610 Eh
   MAX-DP              :       0.007608579535
   RMS-DP              :       0.000163363600
   Actual Damping      :       0.7000
   Actual Level Shift  :       0.2500 Eh
   DIIS-Error          :       0.202339725061
   DIIS coefficients:
     -0.36856  -0.36803   2.00093  -0.13047  -0.13387


                         ----------------------------
                         !        ITERATION    35   !
                         ----------------------------
   Total Energy        :      -0.775670281210 Eh
   Energy Change       :      -0.001599658279 Eh
   MAX-DP              :       0.005779566482
   RMS-DP              :       0.000124173590
   Actual Damping      :       0.7000
   Actual Level Shift  :       0.2500 Eh
   DIIS-Error          :       0.203280853407
   DIIS coefficients:
     -0.08538  -0.68364   1.92808  -0.07747  -0.08159


                         ----------------------------
                         !        ITERATION    36   !
                         ----------------------------
   Total Energy        :      -0.794049835458 Eh
   Energy Change       :      -0.018379554248 Eh
   MAX-DP              :       0.005224949623
   RMS-DP              :       0.000112035445
   Actual Damping      :       0.7000
   Actual Level Shift  :       0.2500 Eh
   DIIS-Error          :       0.204011740354
   DIIS coefficients:
     -0.00066  -0.00925   0.97749   0.02195   0.01047


                         ----------------------------
                         !        ITERATION    37   !
                         ----------------------------
   Total Energy        :      -0.455131042129 Eh
   Energy Change       :       0.338918793330 Eh
   MAX-DP              :       0.134844205067
   RMS-DP              :       0.004455325731
   Actual Damping      :       0.7000
   Actual Level Shift  :       0.2500 Eh
   DIIS-Error          :       0.205134007975
   DIIS coefficients:
      0.12531   0.07691   0.35836   0.25160   0.18783


                         ----------------------------
                         !        ITERATION    38   !
                         ----------------------------
   Total Energy        :      -0.697087917063 Eh
   Energy Change       :      -0.241956874934 Eh
   MAX-DP              :       0.245330916719
   RMS-DP              :       0.010358752331
   Actual Damping      :       0.0000
   Actual Level Shift  :       0.2500 Eh
   DIIS-Error          :       0.081044366402
   DIIS coefficients:
     -0.13745  -0.13955  -0.14297   1.55472  -0.13475


                         ----------------------------
                         !        ITERATION    39   !
                         ----------------------------
   Total Energy        :      -0.767024916428 Eh
   Energy Change       :      -0.069936999366 Eh
   MAX-DP              :       0.008272463251
   RMS-DP              :       0.000178192760
   Actual Damping      :       0.7000
   Actual Level Shift  :       0.2500 Eh
   DIIS-Error          :       0.198965107343
   DIIS coefficients:
     -0.26397  -0.26357  -0.26306   2.06055  -0.26995

               *** Restarting incremental Fock matrix formation ***
                                   *** Resetting DIIS ***

                         ----------------------------
                         !        ITERATION    40   !
                         ----------------------------
   Total Energy        :      -0.455428585074 Eh
   Energy Change       :       0.311596331354 Eh
   MAX-DP              :       0.134844205066
   RMS-DP              :       0.004469855482
   Actual Damping      :       0.7000
   Actual Level Shift  :       0.2500 Eh
   DIIS-Error          :       0.199968961965


                         ----------------------------
                         !        ITERATION    41   !
                         ----------------------------
   Total Energy        :      -0.693404583174 Eh
   Energy Change       :      -0.237975998100 Eh
   MAX-DP              :       0.256762531706
   RMS-DP              :       0.010377341862
   Actual Damping      :       0.0000
   Actual Level Shift  :       0.2500 Eh
   DIIS-Error          :       0.078602227578
   DIIS coefficients:
     -0.49116   1.49116


                         ----------------------------
                         !        ITERATION    42   !
                         ----------------------------
   Total Energy        :      -0.771266500079 Eh
   Energy Change       :      -0.077861916905 Eh
   MAX-DP              :       0.008942798561
   RMS-DP              :       0.000199190138
   Actual Damping      :       0.7000
   Actual Level Shift  :       0.2500 Eh
   DIIS-Error          :       0.203629549290
   DIIS coefficients:
     -0.68081   1.90992  -0.22911


                         ----------------------------
                         !        ITERATION    43   !
                         ----------------------------
   Total Energy        :      -0.773128083626 Eh
   Energy Change       :      -0.001861583547 Eh
   MAX-DP              :       0.008581638640
   RMS-DP              :       0.000191221255
   Actual Damping      :       0.7000
   Actual Level Shift  :       0.2500 Eh
   DIIS-Error          :       0.203744729443
   DIIS coefficients:
     -0.68866   1.92731  -0.11859  -0.12005


                         ----------------------------
                         !        ITERATION    44   !
                         ----------------------------
   Total Energy        :      -0.773699964962 Eh
   Energy Change       :      -0.000571881336 Eh
   MAX-DP              :       0.006483617850
   RMS-DP              :       0.000144034576
   Actual Damping      :       0.7000
   Actual Level Shift  :       0.2500 Eh
   DIIS-Error          :       0.203849441160
   DIIS coefficients:
     -0.69153   1.93367  -0.07935  -0.08075  -0.08203


                         ----------------------------
                         !        ITERATION    45   !
                         ----------------------------
   Total Energy        :      -0.791812388373 Eh
   Energy Change       :      -0.018112423411 Eh
   MAX-DP              :       0.005765001590
   RMS-DP              :       0.000127352922
   Actual Damping      :       0.7000
   Actual Level Shift  :       0.2500 Eh
   DIIS-Error          :       0.203978952380
   DIIS coefficients:
      0.00976   0.97105   0.00376   0.00654   0.00889


                         ----------------------------
                         !        ITERATION    46   !
                         ----------------------------
   Total Energy        :      -0.455758663076 Eh
   Energy Change       :       0.336053725297 Eh
   MAX-DP              :       0.134844205067
   RMS-DP              :       0.004455393263
   Actual Damping      :       0.7000
   Actual Level Shift  :       0.2500 Eh
   DIIS-Error          :       0.204633093438
   DIIS coefficients:
      0.03322   0.95283  -0.01610   0.00566   0.02439


                         ----------------------------
                         !        ITERATION    47   !
                         ----------------------------
   Total Energy        :      -0.696972781180 Eh
   Energy Change       :      -0.241214118104 Eh
   MAX-DP              :       0.244708331846
   RMS-DP              :       0.010357728324
   Actual Damping      :       0.0000
   Actual Level Shift  :       0.2500 Eh
   DIIS-Error          :       0.080725964330
   DIIS coefficients:
     -0.13649  -0.13769   1.55013  -0.13867  -0.13728


                         ----------------------------
                         !        ITERATION    48   !
                         ----------------------------
   Total Energy        :      -0.767590322118 Eh
   Energy Change       :      -0.070617540938 Eh
   MAX-DP              :       0.008271333626
   RMS-DP              :       0.000178195316
   Actual Damping      :       0.7000
   Actual Level Shift  :       0.2500 Eh
   DIIS-Error          :       0.199300239608
   DIIS coefficients:
     -0.26169  -0.26109   2.05383  -0.26883  -0.26222


                         ----------------------------
                         !        ITERATION    49   !
                         ----------------------------
   Total Energy        :      -0.770268477855 Eh
   Energy Change       :      -0.002678155736 Eh
   MAX-DP              :       0.007671643807
   RMS-DP              :       0.000165053874
   Actual Damping      :       0.7000
   Actual Level Shift  :       0.2500 Eh
   DIIS-Error          :       0.200290234341
   DIIS coefficients:
     -0.38529  -0.38452   2.03956  -0.13300  -0.13674


                         ----------------------------
                         !        ITERATION    50   !
                         ----------------------------
   Total Energy        :      -0.772376340007 Eh
   Energy Change       :      -0.002107862153 Eh
   MAX-DP              :       0.005811754566
   RMS-DP              :       0.000124886134
   Actual Damping      :       0.7000
   Actual Level Shift  :       0.2500 Eh
   DIIS-Error          :       0.201249704480
   DIIS coefficients:
     -0.08627  -0.70495   1.95065  -0.07744  -0.08199


                         ----------------------------
                         !        ITERATION    51   !
                         ----------------------------
   Total Energy        :      -0.787133714023 Eh
   Energy Change       :      -0.014757374016 Eh
   MAX-DP              :       0.005918855447
   RMS-DP              :       0.000133381769
   Actual Damping      :       0.7000
   Actual Level Shift  :       0.2500 Eh
   DIIS-Error          :       0.202035199637
   DIIS coefficients:
      0.00366  -0.00679   0.95789   0.02892   0.01632


                         ----------------------------
                         !        ITERATION    52   !
                         ----------------------------
   Total Energy        :      -0.456136131873 Eh
   Energy Change       :       0.330997582150 Eh
   MAX-DP              :       0.134844205067
   RMS-DP              :       0.004456398206
   Actual Damping      :       0.7000
   Actual Level Shift  :       0.2500 Eh
   DIIS-Error          :       0.202484067787
   DIIS coefficients:
      0.06586   0.01246   0.59801   0.19347   0.13020


                         ----------------------------
                         !        ITERATION    53   !
                         ----------------------------
   Total Energy        :      -0.696787835742 Eh
   Energy Change       :      -0.240651703869 Eh
   MAX-DP              :       0.243399881089
   RMS-DP              :       0.010358600220
   Actual Damping      :       0.0000
   Actual Level Shift  :       0.2500 Eh
   DIIS-Error          :       0.079350567756
   DIIS coefficients:
     -0.13557  -0.13789  -0.13804   1.54432  -0.13281


                         ----------------------------
                         !        ITERATION    54   !
                         ----------------------------
   Total Energy        :      -0.768531889557 Eh
   Energy Change       :      -0.071744053815 Eh
   MAX-DP              :       0.008242136889
   RMS-DP              :       0.000177354954
   Actual Damping      :       0.7000
   Actual Level Shift  :       0.2500 Eh
   DIIS-Error          :       0.199724823567
   DIIS coefficients:
     -0.25948  -0.25900  -0.25830   2.04430  -0.26753


                         ----------------------------
                         !        ITERATION    55   !
                         ----------------------------
   Total Energy        :      -0.771351511545 Eh
   Energy Change       :      -0.002819621988 Eh
   MAX-DP              :       0.007622222631
   RMS-DP              :       0.000163626453
   Actual Damping      :       0.7000
   Actual Level Shift  :       0.2500 Eh
   DIIS-Error          :       0.200730185101
   DIIS coefficients:
     -0.13613  -0.38092  -0.38010   2.02959  -0.13245


                         ----------------------------
                         !        ITERATION    56   !
                         ----------------------------
   Total Energy        :      -0.773453886375 Eh
   Energy Change       :      -0.002102374830 Eh
   MAX-DP              :       0.005750037175
   RMS-DP              :       0.000123174216
   Actual Damping      :       0.7000
   Actual Level Shift  :       0.2500 Eh
   DIIS-Error          :       0.201725733152
   DIIS coefficients:
     -0.08193  -0.08621  -0.69846   1.94405  -0.07745


                         ----------------------------
                         !        ITERATION    57   !
                         ----------------------------
   Total Energy        :      -0.789265657375 Eh
   Energy Change       :      -0.015811771000 Eh
   MAX-DP              :       0.005665934230
   RMS-DP              :       0.000125541291
   Actual Damping      :       0.7000
   Actual Level Shift  :       0.2500 Eh
   DIIS-Error          :       0.202550197428
   DIIS coefficients:
      0.01504   0.00213  -0.00867   0.96396   0.02755


                         ----------------------------
                         !        ITERATION    58   !
                         ----------------------------
   Total Energy        :      -0.455827165222 Eh
   Energy Change       :       0.333438492153 Eh
   MAX-DP              :       0.134844205067
   RMS-DP              :       0.004456071419
   Actual Damping      :       0.7000
   Actual Level Shift  :       0.2500 Eh
   DIIS-Error          :       0.203237633621
   DIIS coefficients:
      0.16048   0.09260   0.03537   0.48623   0.22531


                         ----------------------------
                         !        ITERATION    59   !
                         ----------------------------
   Total Energy        :      -0.696879958520 Eh
   Energy Change       :      -0.241052793298 Eh
   MAX-DP              :       0.243950884145
   RMS-DP              :       0.010358649988
   Actual Damping      :       0.0000
   Actual Level Shift  :       0.2500 Eh
   DIIS-Error          :       0.079832013022
   DIIS coefficients:
     -0.13307  -0.13603  -0.13855  -0.13987   1.54753

               *** Restarting incremental Fock matrix formation ***
                                   *** Resetting DIIS ***

                         ----------------------------
                         !        ITERATION    60   !
                         ----------------------------
   Total Energy        :      -0.454776064012 Eh
   Energy Change       :       0.242103894508 Eh
   MAX-DP              :       0.134844205066
   RMS-DP              :       0.004476691019
   Actual Damping      :       0.7000
   Actual Level Shift  :       0.2500 Eh
   DIIS-Error          :       0.199490611252


                         ----------------------------
                         !        ITERATION    61   !
                         ----------------------------
   Total Energy        :      -0.693202429521 Eh
   Energy Change       :      -0.238426365508 Eh
   MAX-DP              :       0.262895107045
   RMS-DP              :       0.010393286081
   Actual Damping      :       0.0000
   Actual Level Shift  :       0.2500 Eh
   DIIS-Error          :       0.079081183988
   DIIS coefficients:
     -0.49078   1.49078


                         ----------------------------
                         !        ITERATION    62   !
                         ----------------------------
   Total Energy        :      -0.771291994829 Eh
   Energy Change       :      -0.078089565308 Eh
   MAX-DP              :       0.008945972424
   RMS-DP              :       0.000199295816
   Actual Damping      :       0.7000
   Actual Level Shift  :       0.2500 Eh
   DIIS-Error          :       0.203657327035
   DIIS coefficients:
     -0.68026   1.90918  -0.22892


                         ----------------------------
                         !        ITERATION    63   !
                         ----------------------------
   Total Energy        :      -0.773151948715 Eh
   Energy Change       :      -0.001859953886 Eh
   MAX-DP              :       0.008586439713
   RMS-DP              :       0.000191363351
   Actual Damping      :       0.7000
   Actual Level Shift  :       0.2500 Eh
   DIIS-Error          :       0.203767706936
   DIIS coefficients:
     -0.68811   1.92655  -0.11850  -0.11994


                         ----------------------------
                         !        ITERATION    64   !
                         ----------------------------
   Total Energy        :      -0.773723427611 Eh
   Energy Change       :      -0.000571478896 Eh
   MAX-DP              :       0.006488199719
   RMS-DP              :       0.000144164057
   Actual Damping      :       0.7000
   Actual Level Shift  :       0.2500 Eh
   DIIS-Error          :       0.203867728811
   DIIS coefficients:
     -0.69097   1.93291  -0.07931  -0.08068  -0.08195


                         ----------------------------
                         !        ITERATION    65   !
                         ----------------------------
   Total Energy        :      -0.791901152805 Eh
   Energy Change       :      -0.018177725194 Eh
   MAX-DP              :       0.005755848419
   RMS-DP              :       0.000127056014
   Actual Damping      :       0.7000
   Actual Level Shift  :       0.2500 Eh
   DIIS-Error          :       0.203993588655
   DIIS coefficients:
      0.00980   0.97130   0.00359   0.00644   0.00886


                         ----------------------------
                         !        ITERATION    66   !
                         ----------------------------
   Total Energy        :      -0.455749623369 Eh
   Energy Change       :       0.336151529436 Eh
   MAX-DP              :       0.134844205067
   RMS-DP              :       0.004455381428
   Actual Damping      :       0.7000
   Actual Level Shift  :       0.2500 Eh
   DIIS-Error          :       0.204658309030
   DIIS coefficients:
      0.03424   0.95118  -0.01634   0.00587   0.02505


                         ----------------------------
                         !        ITERATION    67   !
                         ----------------------------
   Total Energy        :      -0.696975758414 Eh
   Energy Change       :      -0.241226135045 Eh
   MAX-DP              :       0.244723535201
   RMS-DP              :       0.010357725989
   Actual Damping      :       0.0000
   Actual Level Shift  :       0.2500 Eh
   DIIS-Error          :       0.080742090738
   DIIS coefficients:
     -0.13649  -0.13774   1.55023  -0.13871  -0.13729


                         ----------------------------
                         !        ITERATION    68   !
                         ----------------------------
   Total Energy        :      -0.767574913221 Eh
   Energy Change       :      -0.070599154807 Eh
   MAX-DP              :       0.008271730494
   RMS-DP              :       0.000178206653
   Actual Damping      :       0.7000
   Actual Level Shift  :       0.2500 Eh
   DIIS-Error          :       0.199293011199
   DIIS coefficients:
     -0.26174  -0.26114   2.05400  -0.26886  -0.26227


                         ----------------------------
                         !        ITERATION    69   !
                         ----------------------------
   Total Energy        :      -0.770253407806 Eh
   Energy Change       :      -0.002678494585 Eh
   MAX-DP              :       0.007672065857
   RMS-DP              :       0.000165065701
   Actual Damping      :       0.7000
   Actual Level Shift  :       0.2500 Eh
   DIIS-Error          :       0.200282851057
   DIIS coefficients:
     -0.38536  -0.38458   2.03971  -0.13301  -0.13675


                         ----------------------------
                         !        ITERATION    70   !
                         ----------------------------
   Total Energy        :      -0.772364038074 Eh
   Energy Change       :      -0.002110630267 Eh
   MAX-DP              :       0.005811989286
   RMS-DP              :       0.000124891759
   Actual Damping      :       0.7000
   Actual Level Shift  :       0.2500 Eh
   DIIS-Error          :       0.201242181135
   DIIS coefficients:
     -0.08627  -0.70503   1.95073  -0.07744  -0.08199


                         ----------------------------
                         !        ITERATION    71   !
                         ----------------------------
   Total Energy        :      -0.787107587001 Eh
   Energy Change       :      -0.014743548927 Eh
   MAX-DP              :       0.005921551866
   RMS-DP              :       0.000133467019
   Actual Damping      :       0.7000
   Actual Level Shift  :       0.2500 Eh
   DIIS-Error          :       0.202027820649
   DIIS coefficients:
      0.00368  -0.00678   0.95782   0.02895   0.01634


                         ----------------------------
                         !        ITERATION    72   !
                         ----------------------------
   Total Energy        :      -0.456140100540 Eh
   Energy Change       :       0.330967486460 Eh
   MAX-DP              :       0.134844205067
   RMS-DP              :       0.004456402549
   Actual Damping      :       0.7000
   Actual Level Shift  :       0.2500 Eh
   DIIS-Error          :       0.202474118233
   DIIS coefficients:
      0.06563   0.01221   0.59900   0.19321   0.12995


                         ----------------------------
                         !        ITERATION    73   !
                         ----------------------------
   Total Energy        :      -0.696786687336 Eh
   Energy Change       :      -0.240646586796 Eh
   MAX-DP              :       0.243392555783
   RMS-DP              :       0.010358600351
   Actual Damping      :       0.0000
   Actual Level Shift  :       0.2500 Eh
   DIIS-Error          :       0.079344210501
   DIIS coefficients:
     -0.13557  -0.13788  -0.13802   1.54428  -0.13281


                         ----------------------------
                         !        ITERATION    74   !
                         ----------------------------
   Total Energy        :      -0.768537576001 Eh
   Energy Change       :      -0.071750888665 Eh
   MAX-DP              :       0.008242026888
   RMS-DP              :       0.000177351939
   Actual Damping      :       0.7000
   Actual Level Shift  :       0.2500 Eh
   DIIS-Error          :       0.199727718222
   DIIS coefficients:
     -0.25946  -0.25898  -0.25828   2.04424  -0.26752


                         ----------------------------
                         !        ITERATION    75   !
                         ----------------------------
   Total Energy        :      -0.771356943998 Eh
   Energy Change       :      -0.002819367997 Eh
   MAX-DP              :       0.007622130238
   RMS-DP              :       0.000163623934
   Actual Damping      :       0.7000
   Actual Level Shift  :       0.2500 Eh
   DIIS-Error          :       0.200733078328
   DIIS coefficients:
     -0.13612  -0.38090  -0.38007   2.02954  -0.13245


                         ----------------------------
                         !        ITERATION    76   !
                         ----------------------------
   Total Energy        :      -0.773458778788 Eh
   Energy Change       :      -0.002101834790 Eh
   MAX-DP              :       0.005749961385
   RMS-DP              :       0.000123172296
   Actual Damping      :       0.7000
   Actual Level Shift  :       0.2500 Eh
   DIIS-Error          :       0.201728608526
   DIIS coefficients:
     -0.08193  -0.08620  -0.69843   1.94402  -0.07745


                         ----------------------------
                         !        ITERATION    77   !
                         ----------------------------
   Total Energy        :      -0.789275911488 Eh
   Energy Change       :      -0.015817132700 Eh
   MAX-DP              :       0.005664872214
   RMS-DP              :       0.000125508306
   Actual Damping      :       0.7000
   Actual Level Shift  :       0.2500 Eh
   DIIS-Error          :       0.202553031017
   DIIS coefficients:
      0.01503   0.00212  -0.00868   0.96399   0.02754


                         ----------------------------
                         !        ITERATION    78   !
                         ----------------------------
   Total Energy        :      -0.455825689320 Eh
   Energy Change       :       0.333450222168 Eh
   MAX-DP              :       0.134844205067
   RMS-DP              :       0.004456069796
   Actual Damping      :       0.7000
   Actual Level Shift  :       0.2500 Eh
   DIIS-Error          :       0.203241494350
   DIIS coefficients:
      0.16057   0.09269   0.03547   0.48586   0.22541


                         ----------------------------
                         !        ITERATION    79   !
                         ----------------------------
   Total Energy        :      -0.696880402855 Eh
   Energy Change       :      -0.241054713534 Eh
   MAX-DP              :       0.243953699622
   RMS-DP              :       0.010358650107
   Actual Damping      :       0.0000
   Actual Level Shift  :       0.2500 Eh
   DIIS-Error          :       0.079834480316
   DIIS coefficients:
     -0.13308  -0.13603  -0.13855  -0.13988   1.54754

               *** Restarting incremental Fock matrix formation ***
                                   *** Resetting DIIS ***

                         ----------------------------
                         !        ITERATION    80   !
                         ----------------------------
   Total Energy        :      -0.454776454809 Eh
   Energy Change       :       0.242103948046 Eh
   MAX-DP              :       0.134844205066
   RMS-DP              :       0.004476691153
   Actual Damping      :       0.7000
   Actual Level Shift  :       0.2500 Eh
   DIIS-Error          :       0.199489488614


                         ----------------------------
                         !        ITERATION    81   !
                         ----------------------------
   Total Energy        :      -0.693202350674 Eh
   Energy Change       :      -0.238425895865 Eh
   MAX-DP              :       0.262894377908
   RMS-DP              :       0.010393285658
   Actual Damping      :       0.0000
   Actual Level Shift  :       0.2500 Eh
   DIIS-Error          :       0.079080618600
   DIIS coefficients:
     -0.49078   1.49078


                         ----------------------------
                         !        ITERATION    82   !
                         ----------------------------
   Total Energy        :      -0.771292551129 Eh
   Energy Change       :      -0.078090200455 Eh
   MAX-DP              :       0.008945943727
   RMS-DP              :       0.000199294969
   Actual Damping      :       0.7000
   Actual Level Shift  :       0.2500 Eh
   DIIS-Error          :       0.203657566276
   DIIS coefficients:
     -0.68026   1.90918  -0.22892


                         ----------------------------
                         !        ITERATION    83   !
                         ----------------------------
   Total Energy        :      -0.773152504110 Eh
   Energy Change       :      -0.001859952980 Eh
   MAX-DP              :       0.008586407548
   RMS-DP              :       0.000191362431
   Actual Damping      :       0.7000
   Actual Level Shift  :       0.2500 Eh
   DIIS-Error          :       0.203767963968
   DIIS coefficients:
     -0.68810   1.92655  -0.11850  -0.11994


                         ----------------------------
                         !        ITERATION    84   !
                         ----------------------------
   Total Energy        :      -0.773723982351 Eh
   Energy Change       :      -0.000571478242 Eh
   MAX-DP              :       0.006488173343
   RMS-DP              :       0.000144163317
   Actual Damping      :       0.7000
   Actual Level Shift  :       0.2500 Eh
   DIIS-Error          :       0.203868002407
   DIIS coefficients:
     -0.69097   1.93291  -0.07931  -0.08068  -0.08195


                         ----------------------------
                         !        ITERATION    85   !
                         ----------------------------
   Total Energy        :      -0.791902242263 Eh
   Energy Change       :      -0.018178259912 Eh
   MAX-DP              :       0.005755727628
   RMS-DP              :       0.000127052304
   Actual Damping      :       0.7000
   Actual Level Shift  :       0.2500 Eh
   DIIS-Error          :       0.203993874608
   DIIS coefficients:
      0.00980   0.97131   0.00359   0.00644   0.00886


                         ----------------------------
                         !        ITERATION    86   !
                         ----------------------------
   Total Energy        :      -0.455749426873 Eh
   Energy Change       :       0.336152815390 Eh
   MAX-DP              :       0.134844205067
   RMS-DP              :       0.004455381274
   Actual Damping      :       0.7000
   Actual Level Shift  :       0.2500 Eh
   DIIS-Error          :       0.204658710382
   DIIS coefficients:
      0.03425   0.95113  -0.01632   0.00588   0.02506


                         ----------------------------
                         !        ITERATION    87   !
                         ----------------------------
   Total Energy        :      -0.696975805584 Eh
   Energy Change       :      -0.241226378711 Eh
   MAX-DP              :       0.244723832269
   RMS-DP              :       0.010357726051
   Actual Damping      :       0.0000
   Actual Level Shift  :       0.2500 Eh
   DIIS-Error          :       0.080742347249
   DIIS coefficients:
     -0.13649  -0.13774   1.55023  -0.13871  -0.13729


                         ----------------------------
                         !        ITERATION    88   !
                         ----------------------------
   Total Energy        :      -0.767574675334 Eh
   Energy Change       :      -0.070598869749 Eh
   MAX-DP              :       0.008271735076
   RMS-DP              :       0.000178206779
   Actual Damping      :       0.7000
   Actual Level Shift  :       0.2500 Eh
   DIIS-Error          :       0.199292890286
   DIIS coefficients:
     -0.26174  -0.26114   2.05400  -0.26886  -0.26227


                         ----------------------------
                         !        ITERATION    89   !
                         ----------------------------
   Total Energy        :      -0.770253185421 Eh
   Energy Change       :      -0.002678510088 Eh
   MAX-DP              :       0.007672069239
   RMS-DP              :       0.000165065792
   Actual Damping      :       0.7000
   Actual Level Shift  :       0.2500 Eh
   DIIS-Error          :       0.200282730200
   DIIS coefficients:
     -0.38536  -0.38458   2.03971  -0.13301  -0.13675


                         ----------------------------
                         !        ITERATION    90   !
                         ----------------------------
   Total Energy        :      -0.772363840666 Eh
   Energy Change       :      -0.002110655244 Eh
   MAX-DP              :       0.005811991606
   RMS-DP              :       0.000124891815
   Actual Damping      :       0.7000
   Actual Level Shift  :       0.2500 Eh
   DIIS-Error          :       0.201242061660
   DIIS coefficients:
     -0.08627  -0.70503   1.95073  -0.07744  -0.08199


                         ----------------------------
                         !        ITERATION    91   !
                         ----------------------------
   Total Energy        :      -0.787107166037 Eh
   Energy Change       :      -0.014743325371 Eh
   MAX-DP              :       0.005921595246
   RMS-DP              :       0.000133468395
   Actual Damping      :       0.7000
   Actual Level Shift  :       0.2500 Eh
   DIIS-Error          :       0.202027703802
   DIIS coefficients:
      0.00368  -0.00678   0.95782   0.02895   0.01634


                         ----------------------------
                         !        ITERATION    92   !
                         ----------------------------
   Total Energy        :      -0.456140163346 Eh
   Energy Change       :       0.330967002691 Eh
   MAX-DP              :       0.134844205067
   RMS-DP              :       0.004456402619
   Actual Damping      :       0.7000
   Actual Level Shift  :       0.2500 Eh
   DIIS-Error          :       0.202473959552
   DIIS coefficients:
      0.06562   0.01220   0.59902   0.19321   0.12995


                         ----------------------------
                         !        ITERATION    93   !
                         ----------------------------
   Total Energy        :      -0.696786669022 Eh
   Energy Change       :      -0.240646505676 Eh
   MAX-DP              :       0.243392439593
   RMS-DP              :       0.010358600355
   Actual Damping      :       0.0000
   Actual Level Shift  :       0.2500 Eh
   DIIS-Error          :       0.079344109112
   DIIS coefficients:
     -0.13557  -0.13788  -0.13802   1.54428  -0.13281


                         ----------------------------
                         !        ITERATION    94   !
                         ----------------------------
   Total Energy        :      -0.768537667007 Eh
   Energy Change       :      -0.071750997985 Eh
   MAX-DP              :       0.008242025084
   RMS-DP              :       0.000177351890
   Actual Damping      :       0.7000
   Actual Level Shift  :       0.2500 Eh
   DIIS-Error          :       0.199727764281
   DIIS coefficients:
     -0.25946  -0.25898  -0.25828   2.04424  -0.26752


                         ----------------------------
                         !        ITERATION    95   !
                         ----------------------------
   Total Energy        :      -0.771357030926 Eh
   Energy Change       :      -0.002819363919 Eh
   MAX-DP              :       0.007622128701
   RMS-DP              :       0.000163623892
   Actual Damping      :       0.7000
   Actual Level Shift  :       0.2500 Eh
   DIIS-Error          :       0.200733124435
   DIIS coefficients:
     -0.13612  -0.38090  -0.38007   2.02954  -0.13245


                         ----------------------------
                         !        ITERATION    96   !
                         ----------------------------
   Total Energy        :      -0.773458856806 Eh
   Energy Change       :      -0.002101825880 Eh
   MAX-DP              :       0.005749960153
   RMS-DP              :       0.000123172264
   Actual Damping      :       0.7000
   Actual Level Shift  :       0.2500 Eh
   DIIS-Error          :       0.201728654408
   DIIS coefficients:
     -0.08193  -0.08620  -0.69843   1.94402  -0.07745


                         ----------------------------
                         !        ITERATION    97   !
                         ----------------------------
   Total Energy        :      -0.789276074974 Eh
   Energy Change       :      -0.015817218168 Eh
   MAX-DP              :       0.005664855283
   RMS-DP              :       0.000125507781
   Actual Damping      :       0.7000
   Actual Level Shift  :       0.2500 Eh
   DIIS-Error          :       0.202553076236
   DIIS coefficients:
      0.01503   0.00212  -0.00868   0.96399   0.02754


                         ----------------------------
                         !        ITERATION    98   !
                         ----------------------------
   Total Energy        :      -0.455825665772 Eh
   Energy Change       :       0.333450409202 Eh
   MAX-DP              :       0.134844205067
   RMS-DP              :       0.004456069770
   Actual Damping      :       0.7000
   Actual Level Shift  :       0.2500 Eh
   DIIS-Error          :       0.203241555935
   DIIS coefficients:
      0.16057   0.09270   0.03547   0.48585   0.22541


                         ----------------------------
                         !        ITERATION    99   !
                         ----------------------------
   Total Energy        :      -0.696880409942 Eh
   Energy Change       :      -0.241054744171 Eh
   MAX-DP              :       0.243953744547
   RMS-DP              :       0.010358650109
   Actual Damping      :       0.0000
   Actual Level Shift  :       0.2500 Eh
   DIIS-Error          :       0.079834519674
   DIIS coefficients:
     -0.13308  -0.13603  -0.13855  -0.13988   1.54754

               *** Restarting incremental Fock matrix formation ***
                                   *** Resetting DIIS ***

                         ----------------------------
                         !        ITERATION   100   !
                         ----------------------------
   Total Energy        :      -0.454776461043 Eh
   Energy Change       :       0.242103948900 Eh
   MAX-DP              :       0.134844205066
   RMS-DP              :       0.004476691155
   Actual Damping      :       0.7000
   Actual Level Shift  :       0.2500 Eh
   DIIS-Error          :       0.199489470705


                         ----------------------------
                         !        ITERATION   101   !
                         ----------------------------
   Total Energy        :      -0.693202349416 Eh
   Energy Change       :      -0.238425888373 Eh
   MAX-DP              :       0.262894366276
   RMS-DP              :       0.010393285651
   Actual Damping      :       0.0000
   Actual Level Shift  :       0.2500 Eh
   DIIS-Error          :       0.079080609581
   DIIS coefficients:
     -0.49078   1.49078


                         ----------------------------
                         !        ITERATION   102   !
                         ----------------------------
   Total Energy        :      -0.771292560004 Eh
   Energy Change       :      -0.078090210588 Eh
   MAX-DP              :       0.008945943269
   RMS-DP              :       0.000199294955
   Actual Damping      :       0.7000
   Actual Level Shift  :       0.2500 Eh
   DIIS-Error          :       0.203657570092
   DIIS coefficients:
     -0.68026   1.90918  -0.22892


                         ----------------------------
                         !        ITERATION   103   !
                         ----------------------------
   Total Energy        :      -0.773152512970 Eh
   Energy Change       :      -0.001859952966 Eh
   MAX-DP              :       0.008586407035
   RMS-DP              :       0.000191362417
   Actual Damping      :       0.7000
   Actual Level Shift  :       0.2500 Eh
   DIIS-Error          :       0.203767968069
   DIIS coefficients:
     -0.68810   1.92655  -0.11850  -0.11994


                         ----------------------------
                         !        ITERATION   104   !
                         ----------------------------
   Total Energy        :      -0.773723991201 Eh
   Energy Change       :      -0.000571478231 Eh
   MAX-DP              :       0.006488172922
   RMS-DP              :       0.000144163306
   Actual Damping      :       0.7000
   Actual Level Shift  :       0.2500 Eh
   DIIS-Error          :       0.203868006772
   DIIS coefficients:
     -0.69097   1.93291  -0.07931  -0.08068  -0.08195


                         ----------------------------
                         !        ITERATION   105   !
                         ----------------------------
   Total Energy        :      -0.791902259643 Eh
   Energy Change       :      -0.018178268442 Eh
   MAX-DP              :       0.005755725701
   RMS-DP              :       0.000127052244
   Actual Damping      :       0.7000
   Actual Level Shift  :       0.2500 Eh
   DIIS-Error          :       0.203993879169
   DIIS coefficients:
      0.00980   0.97131   0.00359   0.00644   0.00886


                         ----------------------------
                         !        ITERATION   106   !
                         ----------------------------
   Total Energy        :      -0.455749423739 Eh
   Energy Change       :       0.336152835904 Eh
   MAX-DP              :       0.134844205067
   RMS-DP              :       0.004455381271
   Actual Damping      :       0.7000
   Actual Level Shift  :       0.2500 Eh
   DIIS-Error          :       0.204658716784
   DIIS coefficients:
      0.03425   0.95113  -0.01632   0.00588   0.02507


                         ----------------------------
                         !        ITERATION   107   !
                         ----------------------------
   Total Energy        :      -0.696975806337 Eh
   Energy Change       :      -0.241226382598 Eh
   MAX-DP              :       0.244723837008
   RMS-DP              :       0.010357726052
   Actual Damping      :       0.0000
   Actual Level Shift  :       0.2500 Eh
   DIIS-Error          :       0.080742351341
   DIIS coefficients:
     -0.13649  -0.13774   1.55023  -0.13871  -0.13729


                         ----------------------------
                         !        ITERATION   108   !
                         ----------------------------
   Total Energy        :      -0.767574671539 Eh
   Energy Change       :      -0.070598865202 Eh
   MAX-DP              :       0.008271735149
   RMS-DP              :       0.000178206781
   Actual Damping      :       0.7000
   Actual Level Shift  :       0.2500 Eh
   DIIS-Error          :       0.199292888357
   DIIS coefficients:
     -0.26174  -0.26114   2.05400  -0.26886  -0.26227


                         ----------------------------
                         !        ITERATION   109   !
                         ----------------------------
   Total Energy        :      -0.770253181874 Eh
   Energy Change       :      -0.002678510335 Eh
   MAX-DP              :       0.007672069293
   RMS-DP              :       0.000165065794
   Actual Damping      :       0.7000
   Actual Level Shift  :       0.2500 Eh
   DIIS-Error          :       0.200282728272
   DIIS coefficients:
     -0.38536  -0.38458   2.03971  -0.13301  -0.13675


                         ----------------------------
                         !        ITERATION   110   !
                         ----------------------------
   Total Energy        :      -0.772363837517 Eh
   Energy Change       :      -0.002110655643 Eh
   MAX-DP              :       0.005811991643
   RMS-DP              :       0.000124891816
   Actual Damping      :       0.7000
   Actual Level Shift  :       0.2500 Eh
   DIIS-Error          :       0.201242059754
   DIIS coefficients:
     -0.08627  -0.70503   1.95073  -0.07744  -0.08199


                         ----------------------------
                         !        ITERATION   111   !
                         ----------------------------
   Total Energy        :      -0.787107159322 Eh
   Energy Change       :      -0.014743321805 Eh
   MAX-DP              :       0.005921595938
   RMS-DP              :       0.000133468417
   Actual Damping      :       0.7000
   Actual Level Shift  :       0.2500 Eh
   DIIS-Error          :       0.202027701938
   DIIS coefficients:
      0.00368  -0.00678   0.95782   0.02895   0.01634


                         ----------------------------
                         !        ITERATION   112   !
                         ----------------------------
   Total Energy        :      -0.456140164348 Eh
   Energy Change       :       0.330966994973 Eh
   MAX-DP              :       0.134844205067
   RMS-DP              :       0.004456402620
   Actual Damping      :       0.7000
   Actual Level Shift  :       0.2500 Eh
   DIIS-Error          :       0.202473957021
   DIIS coefficients:
      0.06562   0.01220   0.59902   0.19321   0.12995


                         ----------------------------
                         !        ITERATION   113   !
                         ----------------------------
   Total Energy        :      -0.696786668730 Eh
   Energy Change       :      -0.240646504382 Eh
   MAX-DP              :       0.243392437739
   RMS-DP              :       0.010358600355
   Actual Damping      :       0.0000
   Actual Level Shift  :       0.2500 Eh
   DIIS-Error          :       0.079344107494
   DIIS coefficients:
     -0.13557  -0.13788  -0.13802   1.54428  -0.13281


                         ----------------------------
                         !        ITERATION   114   !
                         ----------------------------
   Total Energy        :      -0.768537668459 Eh
   Energy Change       :      -0.071750999729 Eh
   MAX-DP              :       0.008242025055
   RMS-DP              :       0.000177351889
   Actual Damping      :       0.7000
   Actual Level Shift  :       0.2500 Eh
   DIIS-Error          :       0.199727765016
   DIIS coefficients:
     -0.25946  -0.25898  -0.25828   2.04424  -0.26752


                         ----------------------------
                         !        ITERATION   115   !
                         ----------------------------
   Total Energy        :      -0.771357032313 Eh
   Energy Change       :      -0.002819363854 Eh
   MAX-DP              :       0.007622128677
   RMS-DP              :       0.000163623892
   Actual Damping      :       0.7000
   Actual Level Shift  :       0.2500 Eh
   DIIS-Error          :       0.200733125170
   DIIS coefficients:
     -0.13612  -0.38090  -0.38007   2.02954  -0.13245


                         ----------------------------
                         !        ITERATION   116   !
                         ----------------------------
   Total Energy        :      -0.773458858050 Eh
   Energy Change       :      -0.002101825738 Eh
   MAX-DP              :       0.005749960133
   RMS-DP              :       0.000123172264
   Actual Damping      :       0.7000
   Actual Level Shift  :       0.2500 Eh
   DIIS-Error          :       0.201728655139
   DIIS coefficients:
     -0.08193  -0.08620  -0.69843   1.94402  -0.07745


                         ----------------------------
                         !        ITERATION   117   !
                         ----------------------------
[...]
                      *** Re-Reading the Fockian *** 
                      *** Removing any level shift *** 
ITER      Energy       Delta-E        Grad      Rot      Max-DP    RMS-DP
  4     -1.13329745  -0.0006621280  0.001170  0.001170  0.000419  0.000027
               *** Restarting incremental Fock matrix formation ***
  5     -1.13357332  -0.0002758627  0.000357  0.000455  0.000348  0.000015
  6     -1.13357373  -0.0000004121  0.000089  0.000151  0.000130  0.000005
                  ***Gradient check signals convergence***
              ***Rediagonalizing the Fockian in SOSCF/NRSCF***

               *****************************************************
               *                     SUCCESS                       *
               *           SCF CONVERGED AFTER   7 CYCLES          *
               *****************************************************

Total Energy       :           -1.13357376 Eh             -30.84611 eV
  Last Energy change         ...   -2.7972e-08  Tolerance :   1.0000e-08
  Last MAX-Density change    ...    2.6627e-06  Tolerance :   1.0000e-07
             **** THE GBW FILE WAS UPDATED (H2_0_1_RHF_def2-qzvpp.sp.gbw) ****
             **** DENSITY FILE WAS UPDATED (H2_0_1_RHF_def2-qzvpp.sp.scfp) ****
             **** ENERGY FILE WAS UPDATED (H2_0_1_RHF_def2-qzvpp.sp.en.tmp) ****
             **** THE GBW FILE WAS UPDATED (H2_0_1_RHF_def2-qzvpp.sp.gbw) ****
             **** DENSITY FILE WAS UPDATED (H2_0_1_RHF_def2-qzvpp.sp.scfp) ****
Total SCF time: 0 days 0 hours 0 min 1 sec 

-------------------------   --------------------
FINAL SINGLE POINT ENERGY        -1.133573757165
-------------------------   --------------------

Storing actual gbw-file in H2_0_1_RHF_def2-qzvpp.sp.018.gbw ... done

                            ***************************************
                            *     ORCA property calculations      *
                            ***************************************

                                    ---------------------
                                    Active property flags
                                    ---------------------
   (+) Dipole Moment


------------------------------------------------------------------------------
                       ORCA ELECTRIC PROPERTIES CALCULATION
------------------------------------------------------------------------------

Dipole Moment Calculation                       ... on
Quadrupole Moment Calculation                   ... off
Polarizability Calculation                      ... off
GBWName                                         ... H2_0_1_RHF_def2-qzvpp.sp.gbw
Electron density file                           ... H2_0_1_RHF_def2-qzvpp.sp.scfp
The origin for moment calculation is the CENTER OF MASS  = ( 0.697895,  0.000000  0.000000)

-------------
DIPOLE MOMENT
-------------
                                X             Y             Z
Electronic contribution:     -0.00000      -0.00000      -0.00000
Nuclear contribution   :      0.00000       0.00000       0.00000
                        -----------------------------------------
Total Dipole Moment    :     -0.00000      -0.00000      -0.00000
                        -----------------------------------------
Magnitude (a.u.)       :      0.00000
Magnitude (Debye)      :      0.00000



--------------------
Rotational spectrum 
--------------------
 
Rotational constants in cm-1:     0.000000    61.309004    61.309004 
Rotational constants in MHz :     0.000000 1837997.694285 1837997.694285 

 Dipole components along the rotational axes: 
x,y,z [a.u.] :    -0.000000    -0.000000    -0.000000 
x,y,z [Debye]:    -0.000000    -0.000000    -0.000000 

 

         *************************************************************
                                TRAJECTORY STEP  19
                RHH  :   0.60842987
         *************************************************************
---------------------------------
CARTESIAN COORDINATES (ANGSTROEM)
---------------------------------
  H      0.000000    0.000000    0.000000
  H      0.608430    0.000000    0.000000

----------------------------
CARTESIAN COORDINATES (A.U.)
----------------------------
  NO LB      ZA    FRAG     MASS         X           Y           Z
   0 H     1.0000    0     1.008    0.000000    0.000000    0.000000
   1 H     1.0000    0     1.008    1.149766    0.000000    0.000000

--------------------------------
INTERNAL COORDINATES (ANGSTROEM)
--------------------------------
 H      0   0   0     0.000000000000     0.00000000     0.00000000
 H      1   0   0     0.608429869077     0.00000000     0.00000000

---------------------------
INTERNAL COORDINATES (A.U.)
---------------------------
 H      0   0   0     0.000000000000     0.00000000     0.00000000
 H      1   0   0     1.149765824252     0.00000000     0.00000000


Diagonalization of the overlap matrix:
Smallest eigenvalue                        ... 8.441e-05
Time for diagonalization                   ...    0.002 sec
Threshold for overlap eigenvalues          ... 1.000e-08
Number of eigenvalues below threshold      ... 0
Time for construction of square roots      ...    0.002 sec
Total time needed                          ...    0.003 sec

--------------
SCF ITERATIONS
--------------
ITER       Energy         Delta-E        Max-DP      RMS-DP      [F,P]     Damp
               ***  Starting incremental Fock matrix formation  ***
  0     -1.1149912488   0.000000000000 0.00257201  0.00013938  0.0788818 0.7000
  1     -1.1159766429  -0.000985394099 0.00200058  0.00012020  0.0598438 0.7000
                               ***Turning on DIIS***
  2     -1.1167351199  -0.000758477050 0.00519601  0.00030717  0.0441377 0.0000
  3     -1.1178410810  -0.001105961090 0.00123915  0.00005671  0.0055821 0.0000
                      *** Initiating the SOSCF procedure ***
                           *** Shutting down DIIS ***
                      *** Re-Reading the Fockian *** 
                      *** Removing any level shift *** 
ITER      Energy       Delta-E        Grad      Rot      Max-DP    RMS-DP
  4     -1.11848635  -0.0006452648  0.001014  0.001014  0.000311  0.000021
               *** Restarting incremental Fock matrix formation ***
  5     -1.11872989  -0.0002435412  0.000307  0.000373  0.000226  0.000011
  6     -1.11873018  -0.0000002926  0.000075  0.000121  0.000084  0.000004
                  ***Gradient check signals convergence***
              ***Rediagonalizing the Fockian in SOSCF/NRSCF***

               *****************************************************
               *                     SUCCESS                       *
               *           SCF CONVERGED AFTER   7 CYCLES          *
               *****************************************************

Total Energy       :           -1.11873020 Eh             -30.44220 eV
  Last Energy change         ...   -1.9065e-08  Tolerance :   1.0000e-08
  Last MAX-Density change    ...    2.0666e-06  Tolerance :   1.0000e-07
             **** THE GBW FILE WAS UPDATED (H2_0_1_RHF_def2-qzvpp.sp.gbw) ****
             **** DENSITY FILE WAS UPDATED (H2_0_1_RHF_def2-qzvpp.sp.scfp) ****
             **** ENERGY FILE WAS UPDATED (H2_0_1_RHF_def2-qzvpp.sp.en.tmp) ****
             **** THE GBW FILE WAS UPDATED (H2_0_1_RHF_def2-qzvpp.sp.gbw) ****
             **** DENSITY FILE WAS UPDATED (H2_0_1_RHF_def2-qzvpp.sp.scfp) ****
Total SCF time: 0 days 0 hours 0 min 1 sec 

-------------------------   --------------------
FINAL SINGLE POINT ENERGY        -1.118730198710
-------------------------   --------------------

Storing actual gbw-file in H2_0_1_RHF_def2-qzvpp.sp.019.gbw ... done

                            ***************************************
                            *     ORCA property calculations      *
                            ***************************************

                                    ---------------------
                                    Active property flags
                                    ---------------------
   (+) Dipole Moment


------------------------------------------------------------------------------
                       ORCA ELECTRIC PROPERTIES CALCULATION
------------------------------------------------------------------------------

Dipole Moment Calculation                       ... on
Quadrupole Moment Calculation                   ... off
Polarizability Calculation                      ... off
GBWName                                         ... H2_0_1_RHF_def2-qzvpp.sp.gbw
Electron density file                           ... H2_0_1_RHF_def2-qzvpp.sp.scfp
The origin for moment calculation is the CENTER OF MASS  = ( 0.574883,  0.000000  0.000000)

-------------
DIPOLE MOMENT
-------------
                                X             Y             Z
Electronic contribution:      0.00000       0.00000       0.00000
Nuclear contribution   :      0.00000       0.00000       0.00000
                        -----------------------------------------
Total Dipole Moment    :      0.00000       0.00000       0.00000
                        -----------------------------------------
Magnitude (a.u.)       :      0.00000
Magnitude (Debye)      :      0.00000



--------------------
Rotational spectrum 
--------------------
 
Rotational constants in cm-1:     0.000000    90.353569    90.353569 
Rotational constants in MHz :     0.000000 2708731.853415 2708731.853415 

 Dipole components along the rotational axes: 
x,y,z [a.u.] :     0.000000     0.000000     0.000000 
x,y,z [Debye]:     0.000000     0.000000     0.000000 

 

         *************************************************************
                                TRAJECTORY STEP  20
                RHH  :   0.50118723
         *************************************************************
---------------------------------
CARTESIAN COORDINATES (ANGSTROEM)
---------------------------------
  H      0.000000    0.000000    0.000000
  H      0.501187    0.000000    0.000000

----------------------------
CARTESIAN COORDINATES (A.U.)
----------------------------
  NO LB      ZA    FRAG     MASS         X           Y           Z
   0 H     1.0000    0     1.008    0.000000    0.000000    0.000000
   1 H     1.0000    0     1.008    0.947107    0.000000    0.000000

--------------------------------
INTERNAL COORDINATES (ANGSTROEM)
--------------------------------
 H      0   0   0     0.000000000000     0.00000000     0.00000000
 H      1   0   0     0.501187233627     0.00000000     0.00000000

---------------------------
INTERNAL COORDINATES (A.U.)
---------------------------
 H      0   0   0     0.000000000000     0.00000000     0.00000000
 H      1   0   0     0.947106613373     0.00000000     0.00000000


Diagonalization of the overlap matrix:
Smallest eigenvalue                        ... 5.708e-05
Time for diagonalization                   ...    0.002 sec
Threshold for overlap eigenvalues          ... 1.000e-08
Number of eigenvalues below threshold      ... 0
Time for construction of square roots      ...    0.001 sec
Total time needed                          ...    0.003 sec

--------------
SCF ITERATIONS
--------------
ITER       Energy         Delta-E        Max-DP      RMS-DP      [F,P]     Damp
               ***  Starting incremental Fock matrix formation  ***
  0     -1.0622328598   0.000000000000 0.00243716  0.00013327  0.0826691 0.7000
  1     -1.0631650226  -0.000932162802 0.00195724  0.00011259  0.0625511 0.7000
                               ***Turning on DIIS***
  2     -1.0638758618  -0.000710839220 0.00467462  0.00028496  0.0460044 0.0000
  3     -1.0649104276  -0.001034565776 0.00107344  0.00004767  0.0052816 0.0000
                      *** Initiating the SOSCF procedure ***
                           *** Shutting down DIIS ***
                      *** Re-Reading the Fockian *** 
                      *** Removing any level shift *** 
ITER      Energy       Delta-E        Grad      Rot      Max-DP    RMS-DP
  4     -1.06551325  -0.0006028219  0.000854  0.000854  0.000296  0.000017
               *** Restarting incremental Fock matrix formation ***
  5     -1.06572174  -0.0002084937  0.000256  0.000298  0.000140  0.000008
  6     -1.06572194  -0.0000001959  0.000061  0.000095  0.000052  0.000003
                  ***Gradient check signals convergence***
              ***Rediagonalizing the Fockian in SOSCF/NRSCF***

               *****************************************************
               *                     SUCCESS                       *
               *           SCF CONVERGED AFTER   7 CYCLES          *
               *****************************************************

Total Energy       :           -1.06572195 Eh             -28.99977 eV
  Last Energy change         ...   -1.2250e-08  Tolerance :   1.0000e-08
  Last MAX-Density change    ...    1.5091e-06  Tolerance :   1.0000e-07
             **** THE GBW FILE WAS UPDATED (H2_0_1_RHF_def2-qzvpp.sp.gbw) ****
             **** DENSITY FILE WAS UPDATED (H2_0_1_RHF_def2-qzvpp.sp.scfp) ****
             **** ENERGY FILE WAS UPDATED (H2_0_1_RHF_def2-qzvpp.sp.en.tmp) ****
             **** THE GBW FILE WAS UPDATED (H2_0_1_RHF_def2-qzvpp.sp.gbw) ****
             **** DENSITY FILE WAS UPDATED (H2_0_1_RHF_def2-qzvpp.sp.scfp) ****
Total SCF time: 0 days 0 hours 0 min 1 sec 

-------------------------   --------------------
FINAL SINGLE POINT ENERGY        -1.065721951414
-------------------------   --------------------

Storing actual gbw-file in H2_0_1_RHF_def2-qzvpp.sp.020.gbw ... done

                            ***************************************
                            *     ORCA property calculations      *
                            ***************************************

                                    ---------------------
                                    Active property flags
                                    ---------------------
   (+) Dipole Moment


------------------------------------------------------------------------------
                       ORCA ELECTRIC PROPERTIES CALCULATION
------------------------------------------------------------------------------

Dipole Moment Calculation                       ... on
Quadrupole Moment Calculation                   ... off
Polarizability Calculation                      ... off
GBWName                                         ... H2_0_1_RHF_def2-qzvpp.sp.gbw
Electron density file                           ... H2_0_1_RHF_def2-qzvpp.sp.scfp
The origin for moment calculation is the CENTER OF MASS  = ( 0.473553,  0.000000  0.000000)

-------------
DIPOLE MOMENT
-------------
                                X             Y             Z
Electronic contribution:      0.00000       0.00000      -0.00000
Nuclear contribution   :      0.00000       0.00000       0.00000
                        -----------------------------------------
Total Dipole Moment    :      0.00000       0.00000      -0.00000
                        -----------------------------------------
Magnitude (a.u.)       :      0.00000
Magnitude (Debye)      :      0.00000



--------------------
Rotational spectrum 
--------------------
 
Rotational constants in cm-1:     0.000000   133.157724   133.157724 
Rotational constants in MHz :     0.000000 3991968.149099 3991968.149099 

 Dipole components along the rotational axes: 
x,y,z [a.u.] :     0.000000     0.000000    -0.000000 
x,y,z [Debye]:     0.000000     0.000000    -0.000000 

 
                              **** TRAJECTORY DONE ***

                         SUMMARY OF THE CALCULATED SURFACE

------------------
TRAJECTORY RESULTS
------------------

Column   1: RHH

The Calculated Surface using the 'Actual Energy'
  19.95262315  -0.50410291
  16.43574799  -0.50977981
  13.53876180  -0.51667322
  11.15240214  -0.52504554
   9.18666532  -0.53521779
   7.56741181  -0.54758705
   6.23357002  -0.56274825
   5.13483291  -0.76868281
   4.22976062  -0.78513790
   3.48421754  -0.80914173
   2.87008485  -0.84211191
   2.36419999  -0.88402268
   1.94748304  -0.93313758
   1.60421716  -0.98627822
   1.32145577  -1.03897337
   1.08853427  -1.08564726
   0.89666781  -1.11970442
   0.73861998  -1.13357376
   0.60842987  -1.11873020
   0.50118723  -1.06572195

                        *******************************
                        *   FIT OF THE ACT-ENERGY PES *
                        *******************************
-------------------------------
POTENTIAL ENERGY SURFACE =   0
-------------------------------

Minimum found after 18 iterations
Equilibrium distance and its energy from the interpolated PES:
  Re      =   0.71811 Angstroem  (  1.35703 Bohr)
  E(Re)   =    -1.133848 Eh 
  dE/dR   = -3.323e-09 (-1.169e-01 CHEB)
  d2E/dR2 =    0.418414 (   1.020314 CHEB) (   0.000257 NUM)
  d3E/dR3 =   -4.131139 (  -5.444647 CHEB)

Spectroscopic constants:
  we =    4702.4 cm**-1 (based on SPLINE)
  we =    7343.2 cm**-1 (based on CHEB)
  we =     116.6 cm**-1 (based on NUM)

Performing Morse fit ...
Morse-Fit Results:
 Te(adiabatic)   =   -6056.1 cm**-1         = -0.751 eV
 d2E/dR**2 (Morse)=      0.045341858 
 d3E/dR**3 (Morse)=     -0.025154057 
 d4E/dR**4 (Morse)=      0.010853562 
 E0               =     -1.161441499 Eh  RMS=2.89e-04
 Re               =  -0.31155 Angstroem      = -0.58874 Bohr RMS=5.30e-03)
 De(Morse)        =  18.04035 eV             = 145505.3 cm**-1 RMS=3.01e-04
 D0(Morse)        =  17.94439 eV
 beta             =   0.18492 au          RMS=7.47e-05
 we               =   1548.0 cm**-1
 wexe             =      4.1 cm**-1
 Displacement   =   -1.0297 Angstroem      = -1.94577 Bohr

The Calculated Surface using the SCF energy
  19.95262315  -0.50410291
  16.43574799  -0.50977981
  13.53876180  -0.51667322
  11.15240214  -0.52504554
   9.18666532  -0.53521779
   7.56741181  -0.54758705
   6.23357002  -0.56274825
   5.13483291  -0.76868281
   4.22976062  -0.78513790
   3.48421754  -0.80914173
   2.87008485  -0.84211191
   2.36419999  -0.88402268
   1.94748304  -0.93313758
   1.60421716  -0.98627822
   1.32145577  -1.03897337
   1.08853427  -1.08564726
   0.89666781  -1.11970442
   0.73861998  -1.13357376
   0.60842987  -1.11873020
   0.50118723  -1.06572195

                        *******************************
                        *       FIT OF THE SCF PES    *
                        *******************************
-------------------------------
POTENTIAL ENERGY SURFACE =   0
-------------------------------

Minimum found after 18 iterations
Equilibrium distance and its energy from the interpolated PES:
  Re      =   0.71811 Angstroem  (  1.35703 Bohr)
  E(Re)   =    -1.133848 Eh 
  dE/dR   = -3.323e-09 (-1.169e-01 CHEB)
  d2E/dR2 =    0.418414 (   1.020314 CHEB) (   0.000257 NUM)
  d3E/dR3 =   -4.131139 (  -5.444647 CHEB)

Spectroscopic constants:
  we =    4702.4 cm**-1 (based on SPLINE)
  we =    7343.2 cm**-1 (based on CHEB)
  we =     116.6 cm**-1 (based on NUM)

Performing Morse fit ...
Morse-Fit Results:
 Te(adiabatic)   =   -6056.1 cm**-1         = -0.751 eV
 d2E/dR**2 (Morse)=      0.045341858 
 d3E/dR**3 (Morse)=     -0.025154057 
 d4E/dR**4 (Morse)=      0.010853562 
 E0               =     -1.161441499 Eh  RMS=2.89e-04
 Re               =  -0.31155 Angstroem      = -0.58874 Bohr RMS=5.30e-03)
 De(Morse)        =  18.04035 eV             = 145505.3 cm**-1 RMS=3.01e-04
 D0(Morse)        =  17.94439 eV
 beta             =   0.18492 au          RMS=7.47e-05
 we               =   1548.0 cm**-1
 wexe             =      4.1 cm**-1
 Displacement   =   -1.0297 Angstroem      = -1.94577 Bohr


Timings for individual modules:

Sum of individual times         ...       45.206 sec (=   0.753 min)
GTO integral calculation        ...        5.034 sec (=   0.084 min)  11.1 %
SCF iterations                  ...       40.172 sec (=   0.670 min)  88.9 %
                             ****ORCA TERMINATED NORMALLY****
TOTAL RUN TIME: 0 days 0 hours 0 minutes 47 seconds 503 msec
