
                                 *****************
                                 * O   R   C   A *
                                 *****************

           --- An Ab Initio, DFT and Semiempirical electronic structure package ---

                  #######################################################
                  #                        -***-                        #
                  #          Department of theory and spectroscopy      #
                  #               Directorship: Frank Neese             #
                  #        Max Planck Institute fuer Kohlenforschung    #
                  #                Kaiser Wilhelm Platz 1               #
                  #                 D-45470 Muelheim/Ruhr               #
                  #                      Germany                        #
                  #                                                     #
                  #                  All rights reserved                #
                  #                        -***-                        #
                  #######################################################


                         Program Version 4.2.0 -  RELEASE  -


 With contributions from (in alphabetic order):
   Daniel Aravena         : Magnetic Suceptibility
   Michael Atanasov       : Ab Initio Ligand Field Theory (pilot matlab implementation)
   Alexander A. Auer      : GIAO ZORA, VPT2
   Ute Becker             : Parallelization
   Giovanni Bistoni       : ED, misc. LED, open-shell LED, HFLED
   Martin Brehm           : Molecular dynamics
   Dmytro Bykov           : SCF Hessian
   Vijay G. Chilkuri      : MRCI spin determinant printing, contributions to CSF-ICE
   Dipayan Datta          : RHF DLPNO-CCSD density
   Achintya Kumar Dutta   : EOM-CC, STEOM-CC
   Dmitry Ganyushin       : Spin-Orbit,Spin-Spin,Magnetic field MRCI
   Miquel Garcia          : C-PCM Hessian, Gaussian charge scheme
   Yang Guo               : DLPNO-NEVPT2, CIM, IAO-localization
   Andreas Hansen         : Spin unrestricted coupled pair/coupled cluster methods
   Benjamin Helmich-Paris : CASSCF linear response (MC-RPA)
   Lee Huntington         : MR-EOM, pCC
   Robert Izsak           : Overlap fitted RIJCOSX, COSX-SCS-MP3, EOM
   Christian Kollmar      : KDIIS, OOCD, Brueckner-CCSD(T), CCSD density
   Simone Kossmann        : Meta GGA functionals, TD-DFT gradient, OOMP2, MP2 Hessian
   Martin Krupicka        : AUTO-CI
   Lucas Lang             : DCDCAS
   Dagmar Lenk            : GEPOL surface, SMD
   Dimitrios Liakos       : Extrapolation schemes; Compound Job, initial MDCI parallelization
   Dimitrios Manganas     : Further ROCIS development; embedding schemes
   Dimitrios Pantazis     : SARC Basis sets
   Taras Petrenko         : DFT Hessian,TD-DFT gradient, ASA, ECA, R-Raman, ABS, FL, XAS/XES, NRVS
   Peter Pinski           : DLPNO-MP2, DLPNO-MP2 Gradient
   Christoph Reimann      : Effective Core Potentials
   Marius Retegan         : Local ZFS, SOC
   Christoph Riplinger    : Optimizer, TS searches, QM/MM, DLPNO-CCSD(T), (RO)-DLPNO pert. Triples
   Tobias Risthaus        : Range-separated hybrids, TD-DFT gradient, RPA, STAB
   Michael Roemelt        : Original ROCIS implementation
   Masaaki Saitow         : Open-shell DLPNO-CCSD energy and density
   Barbara Sandhoefer     : DKH picture change effects
   Avijit Sen             : IP-ROCIS
   Kantharuban Sivalingam : CASSCF convergence, NEVPT2, FIC-MRCI
   Bernardo de Souza      : ESD, SOC TD-DFT
   Georgi Stoychev        : AutoAux, RI-MP2 NMR
   Willem Van den Heuvel  : Paramagnetic NMR
   Boris Wezisla          : Elementary symmetry handling
   Frank Wennmohs         : Technical directorship


 We gratefully acknowledge several colleagues who have allowed us to
 interface, adapt or use parts of their codes:
   Stefan Grimme, W. Hujo, H. Kruse,             : VdW corrections, initial TS optimization,
                  C. Bannwarth                     DFT functionals, gCP, sTDA/sTD-DF
   Ed Valeev, F. Pavosevic, A. Kumar             : LibInt (2-el integral package), F12 methods
   Garnet Chan, S. Sharma, J. Yang, R. Olivares  : DMRG
   Ulf Ekstrom                                   : XCFun DFT Library
   Mihaly Kallay                                 : mrcc  (arbitrary order and MRCC methods)
   Andreas Klamt, Michael Diedenhofen            : otool_cosmo (COSMO solvation model)
   Jiri Pittner, Ondrej Demel                    : Mk-CCSD
   Frank Weinhold                                : gennbo (NPA and NBO analysis)
   Christopher J. Cramer and Donald G. Truhlar   : smd solvation model
   Lars Goerigk                                  : TD-DFT with DH, B97 family of functionals
   V. Asgeirsson, H. Jonsson                     : NEB implementation
   FAccTs GmbH                                   : IRC, NEB, NEB-TS, Multilevel, MM, QM/MM, CI optimization
   S Lehtola, MJT Oliveira, MAL Marques          : LibXC Library


 Your calculation uses the libint2 library for the computation of 2-el integrals
 For citations please refer to: http://libint.valeyev.net

 Your ORCA version has been built with support for libXC version: 4.2.3
 For citations please refer to: https://tddft.org/programs/libxc/

 This ORCA versions uses:
   CBLAS   interface :  Fast vector & matrix operations
   LAPACKE interface :  Fast linear algebra routines
   SCALAPACK package :  Parallel linear algebra routines




***************************************
The coordinates will be read from file: Mo-TAEA-NH3_0_2_bp86_lanl2dz_6-31gpol.opt.xyz
***************************************


----- Orbital basis set information -----
Your calculation utilizes the basis: def2-SVP
   F. Weigend and R. Ahlrichs, Phys. Chem. Chem. Phys. 7, 3297 (2005).

----- AuxJ basis set information -----
Your calculation utilizes the AutoAux generation procedure.
  G. L. Stoychev, A. A. Auer, F. Neese, J. Chem. Theory Comput. 13, 554 (2017)

----- AuxC basis set information -----
Your calculation utilizes the AutoAux generation procedure.
  G. L. Stoychev, A. A. Auer, F. Neese, J. Chem. Theory Comput. 13, 554 (2017)

----- AuxJK basis set information -----
Your calculation utilizes the AutoAux generation procedure.
  G. L. Stoychev, A. A. Auer, F. Neese, J. Chem. Theory Comput. 13, 554 (2017)

cite the ECPs for Mo [Def2-ECP] as follows:
Ce-Yb(ecp-28): M. Dolg, H. Stoll, H.Preuss, J. Chem. Phys., 1989, 90, 1730-1734.
Y-Cd(ecp-28), Hf-Hg(ecp-46): D. Andrae,U. Haeussermann, M. Dolg, H. Stoll, H. Preuss, Theor. Chim. Acta, 1990, 77, 123-141.
In-Sb(ecp-28), Tl-Bi(ecp-46): B. Metz, H. Stoll, M. Dolg, J. Chem. Phys., 2000, 113, 2563-2569.
Te-Xe(ecp-28), Po-Rn(ecp-46): K. A. Peterson, D. Figgen, E. Goll, H. Stoll, M. Dolg, J. Chem. Phys., 2003, 119, 11113-11123.
Rb(ecp-28), Cs(ecp-46): T. Leininger, A. Nicklass, W. Kuechle, H. Stoll, M. Dolg, A. Bergner, Chem. Phys. Lett., 1996, 255, 274-280.
Sr(ecp-28), Ba(ecp-46): M. Kaupp, P. V. Schleyer, H. Stoll and H. Preuss, J. Chem. Phys., 1991, 94, 1360-1366.
La(ecp-46): M. Dolg, H. Stoll, A. Savin, H. Preuss, Theor. Chim. Acta, 1989, 75, 173-194.
Lu(ecp-28): X. Cao, M. Dolg, J. Chem. Phys., 2001, 115, 7348-7355.

ECP parameters for Mo [Def2-ECP] have been obtained from:
TURBOMOLE (7.0.2)

================================================================================
                                        WARNINGS
                       Please study these warnings very carefully!
================================================================================


INFO   : the flag for use of LIBINT has been found!

================================================================================
                                       INPUT FILE
================================================================================
NAME = Mo-TAEA-NH3_0_2_casscf-3-5-2_def2-tzvp_def2-svp.epr.inp
|  1> !uhf def2-svp tightscf ri-somf(1x)
|  2> !normalprint autoaux rijcosx
|  3> !pal8
|  4> !moread
|  5> 
|  6> %moinp "Mo-TAEA-NH3_0_2_UHF_def2-tzvpp_def2-svp.rot.gbw"
|  7> 
|  8> %scf
|  9>   maxiter 500
| 10> end
| 11> 
| 12> %basis
| 13>   newgto Mo "def2-tzvpp" end
| 14> end
| 15> 
| 16> %casscf
| 17>   mult 2
| 18>   nel 3
| 19>   norb 5
| 20>   nroots 2
| 21>   actorbs dorbs
| 22>   rel
| 23>     gtensor true
| 24>     dosoc true
| 25>   end
| 26> end
| 27> 
| 28> *xyzfile 0 2 Mo-TAEA-NH3_0_2_bp86_lanl2dz_6-31gpol.opt.xyz
| 29> 
| 30>                          ****END OF INPUT****
================================================================================

                       ****************************
                       * Single Point Calculation *
                       ****************************

---------------------------------
CARTESIAN COORDINATES (ANGSTROEM)
---------------------------------
  Mo     7.161049   15.739738   13.552686
  N      5.471131   15.197321   14.433170
  N      8.746513   14.519192   13.704041
  N      7.513929   17.690751   13.295368
  N      7.695166   16.198866   15.587176
  N      6.603922   15.231830   11.462641
  H      7.300179   14.609821   11.024603
  H      6.582185   16.069042   10.861573
  H      5.689405   14.766295   11.323835
  C      5.318330   15.472719   15.889445
  H      4.718837   14.691744   16.407905
  H      4.803931   16.445807   16.083145
  C      6.730529   15.489986   16.521529
  H      6.730688   15.959049   17.529273
  H      7.091922   14.450770   16.617908
  C      9.341792   14.392155   15.055764
  H      8.898896   13.552112   15.643655
  H     10.439166   14.205749   15.018849
  C      9.115827   15.727841   15.802263
  H      9.351319   15.638174   16.885554
  H      9.771732   16.497146   15.359352
  C      8.072414   18.413421   14.460314
  H      7.732135   19.471513   14.510628
  H      9.187754   18.441834   14.435862
  C      7.596196   17.702186   15.754170
  H      8.166575   18.034873   16.649563
  H      6.527762   17.934893   15.909817
  H      7.282313   18.335594   12.527952
  H      4.557056   14.915977   14.040522
  H      8.871089   13.632708   13.191849

----------------------------
CARTESIAN COORDINATES (A.U.)
----------------------------
  NO LB      ZA    FRAG     MASS         X           Y           Z
   0 Mo   14.0000*   0    95.940   13.532422   29.743793   25.610866
   1 N     7.0000    0    14.007   10.338940   28.718775   27.274739
   2 N     7.0000    0    14.007   16.528514   27.437296   25.896884
   3 N     7.0000    0    14.007   14.199268   33.430674   25.124604
   4 N     7.0000    0    14.007   14.541757   30.611421   29.455494
   5 N     7.0000    0    14.007   12.479604   28.783986   21.661253
   6 H     1.0000    0     1.008   13.795339   27.608561   20.833480
   7 H     1.0000    0     1.008   12.438526   30.366089   20.525399
   8 H     1.0000    0     1.008   10.751417   27.904253   21.398946
   9 C     6.0000    0    12.011   10.050188   29.239201   30.026700
  10 H     1.0000    0     1.008    8.917310   27.763372   31.006447
  11 H     1.0000    0     1.008    9.078115   31.078071   30.392739
  12 C     6.0000    0    12.011   12.718857   29.271831   31.221165
  13 H     1.0000    0     1.008   12.719157   30.158232   33.125525
  14 H     1.0000    0     1.008   13.401791   27.307997   31.403296
  15 C     6.0000    0    12.011   17.653429   27.197232   28.451270
  16 H     1.0000    0     1.008   16.816477   25.609780   29.562224
  17 H     1.0000    0     1.008   19.727164   26.844974   28.381512
  18 C     6.0000    0    12.011   17.226417   29.721313   29.861948
  19 H     1.0000    0     1.008   17.671432   29.551867   31.909073
  20 H     1.0000    0     1.008   18.465898   31.175088   29.024968
  21 C     6.0000    0    12.011   15.254652   34.796322   27.326033
  22 H     1.0000    0     1.008   14.611617   36.795826   27.421113
  23 H     1.0000    0     1.008   17.362339   34.850015   27.279825
  24 C     6.0000    0    12.011   14.354730   33.452283   29.771067
  25 H     1.0000    0     1.008   15.432589   34.080971   31.463114
  26 H     1.0000    0     1.008   12.335682   33.892037   30.065196
  27 H     1.0000    0     1.008   13.761577   34.649251   23.674398
  28 H     1.0000    0     1.008    8.611588   28.187112   26.532742
  29 H     1.0000    0     1.008   16.763929   25.762084   24.928982
* core charge reduced due to ECP

--------------------------------
INTERNAL COORDINATES (ANGSTROEM)
--------------------------------
 Mo     0   0   0     0.000000000000     0.00000000     0.00000000
 N      1   0   0     1.981234642873     0.00000000     0.00000000
 N      1   2   0     2.006572682212   118.28790299     0.00000000
 N      1   2   3     1.999297310526   118.35363094   207.25629586
 N      1   2   3     2.152957791624    81.37503503   283.86639245
 N      1   2   3     2.221857283880    98.13949128   103.06988836
 H      6   1   2     1.031283661258   111.60087104   233.50743684
 H      6   1   2     1.030863984925   111.59942952   116.54725674
 H      6   1   2     1.035534290335   116.76319240   355.02085702
 C      2   1   3     1.489942550913   118.11486432    82.33578703
 H     10   2   1     1.112705899112   112.39177158   213.59800283
 H     10   2   1     1.117598495088   112.18148717    93.74387220
 C      5   1   2     1.518568853087   108.92250654    16.99158323
 H     13   5   1     1.111561056865   111.14576342   199.86639625
 H     13   5   1     1.104474753788   106.56280956    81.79111518
 C      3   1   2     1.482447642628   115.98802362   291.79060209
 H     16   3   1     1.116891407069   112.65419201    91.04333353
 H     16   3   1     1.113704756387   112.32029921   211.17653548
 C      5   1   2     1.512086208770   107.52204052   137.76368300
 H     19   5   1     1.112212683555   111.25936073   197.71409111
 H     19   5   1     1.103725768588   106.50684944    79.36845554
 C      4   1   2     1.480289376421   116.21295274    82.42716226
 H     22   4   1     1.112600639760   112.61131513   212.51074522
 H     22   4   1     1.115969832290   111.85473104    92.72859252
 C      5   1   2     1.515800861446   107.42203338   257.02698309
 H     25   5   1     1.112537513584   110.59526786   198.66482789
 H     25   5   1     1.104504813610   106.71669465    80.67871613
 H      4   1   2     1.028783563807   131.90775782   270.53642578
 H      2   1   3     1.033857110109   131.28910945   247.89365626
 H      3   1   2     1.031364636486   125.50726437    74.89190536

---------------------------
INTERNAL COORDINATES (A.U.)
---------------------------
 Mo     0   0   0     0.000000000000     0.00000000     0.00000000
 N      1   0   0     3.743990882067     0.00000000     0.00000000
 N      1   2   0     3.791872837188   118.28790299     0.00000000
 N      1   2   3     3.778124377179   118.35363094   207.25629586
 N      1   2   3     4.068500604062    81.37503503   283.86639245
 N      1   2   3     4.198701775191    98.13949128   103.06988836
 H      6   1   2     1.948843686166   111.60087104   233.50743684
 H      6   1   2     1.948050612830   111.59942952   116.54725674
 H      6   1   2     1.956876211018   116.76319240   355.02085702
 C      2   1   3     2.815583376501   118.11486432    82.33578703
 H     10   2   1     2.102709416921   112.39177158   213.59800283
 H     10   2   1     2.111955083398   112.18148717    93.74387220
 C      5   1   2     2.869679247837   108.92250654    16.99158323
 H     13   5   1     2.100545978607   111.14576342   199.86639625
 H     13   5   1     2.087154806489   106.56280956    81.79111518
 C      3   1   2     2.801420052444   115.98802362   291.79060209
 H     16   3   1     2.110618880691   112.65419201    91.04333353
 H     16   3   1     2.104596983617   112.32029921   211.17653548
 C      5   1   2     2.857428825454   107.52204052   137.76368300
 H     19   5   1     2.101777374592   111.25936073   197.71409111
 H     19   5   1     2.085739429584   106.50684944    79.36845554
 C      4   1   2     2.797341520389   116.21295274    82.42716226
 H     22   4   1     2.102510505572   112.61131513   212.51074522
 H     22   4   1     2.108877356746   111.85473104    92.72859252
 C      5   1   2     2.864448501696   107.42203338   257.02698309
 H     25   5   1     2.102391214387   110.59526786   198.66482789
 H     25   5   1     2.087211611321   106.71669465    80.67871613
 H      4   1   2     1.944119186674   131.90775782   270.53642578
 H      2   1   3     1.953706799712   131.28910945   247.89365626
 H      3   1   2     1.948996707170   125.50726437    74.89190536

---------------------
BASIS SET INFORMATION
---------------------
There are 4 groups of distinct atoms

 Group   1 Type Mo  : 7s7p5d2f1g contracted to 6s4p3d2f1g pattern {211111/4111/311/11/1}
 Group   2 Type N   : 7s4p1d contracted to 3s2p1d pattern {511/31/1}
 Group   3 Type H   : 4s1p contracted to 2s1p pattern {31/1}
 Group   4 Type C   : 7s4p1d contracted to 3s2p1d pattern {511/31/1}

Atom   0Mo   basis set group =>   1
Atom   1N    basis set group =>   2
Atom   2N    basis set group =>   2
Atom   3N    basis set group =>   2
Atom   4N    basis set group =>   2
Atom   5N    basis set group =>   2
Atom   6H    basis set group =>   3
Atom   7H    basis set group =>   3
Atom   8H    basis set group =>   3
Atom   9C    basis set group =>   4
Atom  10H    basis set group =>   3
Atom  11H    basis set group =>   3
Atom  12C    basis set group =>   4
Atom  13H    basis set group =>   3
Atom  14H    basis set group =>   3
Atom  15C    basis set group =>   4
Atom  16H    basis set group =>   3
Atom  17H    basis set group =>   3
Atom  18C    basis set group =>   4
Atom  19H    basis set group =>   3
Atom  20H    basis set group =>   3
Atom  21C    basis set group =>   4
Atom  22H    basis set group =>   3
Atom  23H    basis set group =>   3
Atom  24C    basis set group =>   4
Atom  25H    basis set group =>   3
Atom  26H    basis set group =>   3
Atom  27H    basis set group =>   3
Atom  28H    basis set group =>   3
Atom  29H    basis set group =>   3
---------------------------------
AUXILIARY/J BASIS SET INFORMATION
---------------------------------
There are 4 groups of distinct atoms

 Group   1 Type Mo  : 12s11p11d9f9g3h3i contracted to 12s11p11d9f9g3h3i pattern {111111111111/11111111111/11111111111/111111111/111111111/111/111}
 Group   2 Type N   : 14s11p10d2f contracted to 14s11p10d2f pattern {11111111111111/11111111111/1111111111/11}
 Group   3 Type H   : 9s2p1d contracted to 9s2p1d pattern {111111111/11/1}
 Group   4 Type C   : 14s11p10d2f contracted to 14s11p10d2f pattern {11111111111111/11111111111/1111111111/11}

Atom   0Mo   basis set group =>   1
Atom   1N    basis set group =>   2
Atom   2N    basis set group =>   2
Atom   3N    basis set group =>   2
Atom   4N    basis set group =>   2
Atom   5N    basis set group =>   2
Atom   6H    basis set group =>   3
Atom   7H    basis set group =>   3
Atom   8H    basis set group =>   3
Atom   9C    basis set group =>   4
Atom  10H    basis set group =>   3
Atom  11H    basis set group =>   3
Atom  12C    basis set group =>   4
Atom  13H    basis set group =>   3
Atom  14H    basis set group =>   3
Atom  15C    basis set group =>   4
Atom  16H    basis set group =>   3
Atom  17H    basis set group =>   3
Atom  18C    basis set group =>   4
Atom  19H    basis set group =>   3
Atom  20H    basis set group =>   3
Atom  21C    basis set group =>   4
Atom  22H    basis set group =>   3
Atom  23H    basis set group =>   3
Atom  24C    basis set group =>   4
Atom  25H    basis set group =>   3
Atom  26H    basis set group =>   3
Atom  27H    basis set group =>   3
Atom  28H    basis set group =>   3
Atom  29H    basis set group =>   3
---------------------------------
AUXILIARY/C BASIS SET INFORMATION
---------------------------------
There are 4 groups of distinct atoms

 Group   1 Type Mo  : 12s11p11d9f9g3h3i contracted to 12s11p11d9f9g3h3i pattern {111111111111/11111111111/11111111111/111111111/111111111/111/111}
 Group   2 Type N   : 14s11p10d2f contracted to 14s11p10d2f pattern {11111111111111/11111111111/1111111111/11}
 Group   3 Type H   : 9s2p1d contracted to 9s2p1d pattern {111111111/11/1}
 Group   4 Type C   : 14s11p10d2f contracted to 14s11p10d2f pattern {11111111111111/11111111111/1111111111/11}

Atom   0Mo   basis set group =>   1
Atom   1N    basis set group =>   2
Atom   2N    basis set group =>   2
Atom   3N    basis set group =>   2
Atom   4N    basis set group =>   2
Atom   5N    basis set group =>   2
Atom   6H    basis set group =>   3
Atom   7H    basis set group =>   3
Atom   8H    basis set group =>   3
Atom   9C    basis set group =>   4
Atom  10H    basis set group =>   3
Atom  11H    basis set group =>   3
Atom  12C    basis set group =>   4
Atom  13H    basis set group =>   3
Atom  14H    basis set group =>   3
Atom  15C    basis set group =>   4
Atom  16H    basis set group =>   3
Atom  17H    basis set group =>   3
Atom  18C    basis set group =>   4
Atom  19H    basis set group =>   3
Atom  20H    basis set group =>   3
Atom  21C    basis set group =>   4
Atom  22H    basis set group =>   3
Atom  23H    basis set group =>   3
Atom  24C    basis set group =>   4
Atom  25H    basis set group =>   3
Atom  26H    basis set group =>   3
Atom  27H    basis set group =>   3
Atom  28H    basis set group =>   3
Atom  29H    basis set group =>   3
----------------------------------
AUXILIARY/JK BASIS SET INFORMATION
----------------------------------
There are 4 groups of distinct atoms

 Group   1 Type Mo  : 12s11p11d9f9g3h3i contracted to 12s11p11d9f9g3h3i pattern {111111111111/11111111111/11111111111/111111111/111111111/111/111}
 Group   2 Type N   : 14s11p10d2f contracted to 14s11p10d2f pattern {11111111111111/11111111111/1111111111/11}
 Group   3 Type H   : 9s2p1d contracted to 9s2p1d pattern {111111111/11/1}
 Group   4 Type C   : 14s11p10d2f contracted to 14s11p10d2f pattern {11111111111111/11111111111/1111111111/11}

Atom   0Mo   basis set group =>   1
Atom   1N    basis set group =>   2
Atom   2N    basis set group =>   2
Atom   3N    basis set group =>   2
Atom   4N    basis set group =>   2
Atom   5N    basis set group =>   2
Atom   6H    basis set group =>   3
Atom   7H    basis set group =>   3
Atom   8H    basis set group =>   3
Atom   9C    basis set group =>   4
Atom  10H    basis set group =>   3
Atom  11H    basis set group =>   3
Atom  12C    basis set group =>   4
Atom  13H    basis set group =>   3
Atom  14H    basis set group =>   3
Atom  15C    basis set group =>   4
Atom  16H    basis set group =>   3
Atom  17H    basis set group =>   3
Atom  18C    basis set group =>   4
Atom  19H    basis set group =>   3
Atom  20H    basis set group =>   3
Atom  21C    basis set group =>   4
Atom  22H    basis set group =>   3
Atom  23H    basis set group =>   3
Atom  24C    basis set group =>   4
Atom  25H    basis set group =>   3
Atom  26H    basis set group =>   3
Atom  27H    basis set group =>   3
Atom  28H    basis set group =>   3
Atom  29H    basis set group =>   3
-------------------------
ECP PARAMETER INFORMATION
-------------------------

 Group 1, Type Mo ECP Def2-ECP (replacing 28 core electrons, lmax=3)

Atom   0Mo   ECP group =>   1



           ************************************************************
           *        Program running with 8 parallel MPI-processes     *
           *              working on a common directory               *
           ************************************************************
------------------------------------------------------------------------------
                           ORCA GTO INTEGRAL CALCULATION
                           -- RI-GTO INTEGRALS CHOSEN --
------------------------------------------------------------------------------

                         BASIS SET STATISTICS AND STARTUP INFO

Gaussian basis set:
 # of primitive gaussian shells          ...  244
 # of primitive gaussian functions       ...  466
 # of contracted shells                  ...  136
 # of contracted basis functions         ...  300
 Highest angular momentum                ...    4
 Maximum contraction depth               ...    5
Auxiliary gaussian basis set:
 # of primitive gaussian shells          ...  681
 # of primitive gaussian functions       ... 1897
 # of contracted shells                  ...  681
 # of contracted aux-basis functions     ... 1897
 Highest angular momentum                ...    6
 Maximum contraction depth               ...    1
Ratio of auxiliary to basis functions    ...  6.32
Integral package used                  ... LIBINT
 One Electron integrals                  
   ECP integrals                         ... done
 Ordering auxiliary basis shells         ... done
 Integral threshhold             Thresh  ...  2.500e-11
 Primitive cut-off               TCut    ...  2.500e-12
 Pre-screening matrix                    ... done
 Shell pair data                         ... 
 Ordering of the shell pairs             ... done (   0.002 sec) 8523 of 9316 pairs
 Determination of significant pairs      ... done (   0.000 sec)
 Creation of shell pair data             ... done (   0.001 sec)
 Storage of shell pair data              ... done (   0.007 sec)
 Shell pair data done in (   0.010 sec)
 Computing two index integrals           ... done
 Cholesky decomposition of the V-matrix  ... done


Timings:
 Total evaluation time                   ...   1.852 sec (  0.031 min)
 One electron matrix time                ...   1.210 sec (  0.020 min) = 65.3%
 Schwartz matrix evaluation time         ...   0.154 sec (  0.003 min) =  8.3%
 Two index repulsion integral time       ...   0.228 sec (  0.004 min) = 12.3%
 Cholesky decomposition of V             ...   0.214 sec (  0.004 min) = 11.6%
 Three index repulsion integral time     ...   0.000 sec (  0.000 min) =  0.0%



           ************************************************************
           *        Program running with 8 parallel MPI-processes     *
           *              working on a common directory               *
           ************************************************************
-------------------------------------------------------------------------------
                                 ORCA SCF
-------------------------------------------------------------------------------

------------
SCF SETTINGS
------------
Hamiltonian:
 Ab initio Hamiltonian  Method          .... Hartree-Fock(GTOs)
 RI-approximation to the Coulomb term is turned on
   Number of auxiliary basis functions  .... 1897
   RIJ-COSX (HFX calculated with COS-X)).... on


General Settings:
 Integral files         IntName         .... Mo-TAEA-NH3_0_2_casscf-3-5-2_def2-tzvp_def2-svp.epr
 Hartree-Fock type      HFTyp           .... CASSCF
 Total Charge           Charge          ....    0
 Multiplicity           Mult            ....    2
 Number of Electrons    NEL             ....  103
 Basis Dimension        Dim             ....  300
 Nuclear Repulsion      ENuc            ....    929.6310470229 Eh


Diagonalization of the overlap matrix:
Smallest eigenvalue                        ... 1.643e-03
Time for diagonalization                   ...    0.013 sec
Threshold for overlap eigenvalues          ... 1.000e-08
Number of eigenvalues below threshold      ... 0
Time for construction of square roots      ...    0.011 sec
Total time needed                          ...    0.025 sec

---------------------
INITIAL GUESS: MOREAD
---------------------
Guess MOs are being read from file: Mo-TAEA-NH3_0_2_UHF_def2-tzvpp_def2-svp.rot.gbw
Input Geometry matches current geometry (good)
Input basis set matches current basis set (good)
MOs were renormalized
Gram-Schmidt orthogonalization of all MOs with pivot on actives
                      ------------------
                      INITIAL GUESS DONE (   0.2 sec)
                      ------------------
--------------------
COSX GRID GENERATION
--------------------

General Integration Accuracy     IntAcc      ...  3.340
Radial Grid Type                 RadialGrid  ... Gauss-Chebyshev
Angular Grid (max. acc.)         AngularGrid ... Lebedev-50
Angular grid pruning method      GridPruning ... 3 (G Style)
Weight generation scheme         WeightScheme... Becke
Basis function cutoff            BFCut       ...    1.0000e-11
Integration weight cutoff        WCut        ...    1.0000e-14
Grids for H and He will be reduced by one unit

# of grid points (after initial pruning)     ...  13324 (   0.0 sec)
# of grid points (after weights+screening)   ...  12003 (   0.0 sec)
nearest neighbour list constructed           ...    0.0 sec
Grid point re-assignment to atoms done       ...    0.0 sec
Grid point division into batches done        ...    0.0 sec
Reduced shell lists constructed in    0.0 sec

Total number of grid points                  ...    12003
Total number of batches                      ...      204
Average number of points per batch           ...       58
Average number of grid points per atom       ...      400
Average number of shells per batch           ...   111.74 (82.16%)
Average number of basis functions per batch  ...   250.93 (83.64%)
Average number of large shells per batch     ...    85.00 (76.07%)
Average number of large basis fcns per batch ...   186.93 (74.49%)
Maximum spatial batch extension              ...   3.78,  4.72,  4.11 au
Average spatial batch extension              ...   0.29,  0.27,  0.27 au

Overlap Fitting                  UseSFitting ... on
Constructing numerical overlap ... done (      0.0 sec)
Inverting numerical overlap    ... done (      0.0 sec)
Obtaining analytic overlap     ... done (      0.0 sec)
Final contraction and storage  ... done (      0.0 sec)


General Integration Accuracy     IntAcc      ...  3.670
Radial Grid Type                 RadialGrid  ... Gauss-Chebyshev
Angular Grid (max. acc.)         AngularGrid ... Lebedev-50
Angular grid pruning method      GridPruning ... 3 (G Style)
Weight generation scheme         WeightScheme... Becke
Basis function cutoff            BFCut       ...    1.0000e-11
Integration weight cutoff        WCut        ...    1.0000e-14
Grids for H and He will be reduced by one unit

# of grid points (after initial pruning)     ...  17018 (   0.0 sec)
# of grid points (after weights+screening)   ...  15306 (   0.0 sec)
nearest neighbour list constructed           ...    0.0 sec
Grid point re-assignment to atoms done       ...    0.0 sec
Grid point division into batches done        ...    0.0 sec
Reduced shell lists constructed in    0.0 sec

Total number of grid points                  ...    15306
Total number of batches                      ...      254
Average number of points per batch           ...       60
Average number of grid points per atom       ...      510
Average number of shells per batch           ...   110.88 (81.53%)
Average number of basis functions per batch  ...   247.91 (82.64%)
Average number of large shells per batch     ...    84.18 (75.92%)
Average number of large basis fcns per batch ...   184.97 (74.61%)
Maximum spatial batch extension              ...   5.05,  5.11,  6.17 au
Average spatial batch extension              ...   0.27,  0.27,  0.27 au

Overlap Fitting                  UseSFitting ... on
Constructing numerical overlap ... done (      0.0 sec)
Inverting numerical overlap    ... done (      0.0 sec)
Obtaining analytic overlap     ... done (      0.0 sec)
Final contraction and storage  ... done (      0.0 sec)


General Integration Accuracy     IntAcc      ...  4.010
Radial Grid Type                 RadialGrid  ... Gauss-Chebyshev
Angular Grid (max. acc.)         AngularGrid ... Lebedev-110
Angular grid pruning method      GridPruning ... 3 (G Style)
Weight generation scheme         WeightScheme... Becke
Basis function cutoff            BFCut       ...    1.0000e-11
Integration weight cutoff        WCut        ...    1.0000e-14
Grids for H and He will be reduced by one unit

# of grid points (after initial pruning)     ...  31144 (   0.0 sec)
# of grid points (after weights+screening)   ...  27912 (   0.0 sec)
nearest neighbour list constructed           ...    0.0 sec
Grid point re-assignment to atoms done       ...    0.0 sec
Grid point division into batches done        ...    0.0 sec
Reduced shell lists constructed in    0.1 sec

Total number of grid points                  ...    27912
Total number of batches                      ...      448
Average number of points per batch           ...       62
Average number of grid points per atom       ...      930
Average number of shells per batch           ...   108.98 (80.13%)
Average number of basis functions per batch  ...   242.91 (80.97%)
Average number of large shells per batch     ...    81.93 (75.18%)
Average number of large basis fcns per batch ...   180.00 (74.10%)
Maximum spatial batch extension              ...   5.16,  4.49,  4.56 au
Average spatial batch extension              ...   0.22,  0.23,  0.23 au

Overlap Fitting                  UseSFitting ... on
Constructing numerical overlap ... done (      0.0 sec)
Inverting numerical overlap    ... done (      0.0 sec)
Obtaining analytic overlap     ... done (      0.0 sec)
Final contraction and storage  ... done (      0.0 sec)

Time for X-Grid setup             =    0.526 sec


 ... the calculation is a CASSCF calculation -I'm leaving here GOOD LUCK!!!



           ************************************************************
           *        Program running with 8 parallel MPI-processes     *
           *              working on a common directory               *
           ************************************************************
-------------------------------------------------------------------------------
                              ORCA-CASSCF
-------------------------------------------------------------------------------

Setting up the integral package       ... done
Setting up the integral package (RI)  ... done
Building the CAS space                ... done (30 configurations for Mult=2)

SYSTEM-SPECIFIC SETTINGS:
Number of active electrons          ...    3
Number of active orbitals           ...    5
Total number of electrons           ...  103
Total number of orbitals            ...  300
Total number aux. functions         ... 1897

Determined orbital ranges:
   Internal       0 -   49 (  50 orbitals)
   Active        50 -   54 (   5 orbitals)
   External      55 -  299 ( 245 orbitals)
Number of rotation parameters      ...  13725

CI-STEP:
CI strategy                         ... General CI
Number of multiplicity blocks       ...    1
BLOCK  1 WEIGHT=   1.0000
  Multiplicity                      ...    2
  #(Configurations)                 ...   30
  #(CSFs)                           ...   40
  #(Roots)                          ...    2
    ROOT=0 WEIGHT=    0.500000
    ROOT=1 WEIGHT=    0.500000

  PrintLevel                        ...    1
  N(GuessMat)                       ...       512
  MaxDim(CI)                        ...        10
  MaxIter(CI)                       ...        64
  Energy Tolerance CI               ...  2.50e-09
  Residual Tolerance CI             ...  2.50e-09
  Shift(CI)                         ...  1.00e-04

INTEGRAL-TRANSFORMATION-STEP:
  Algorithm                         ... RI-MO

ORBITAL-IMPROVEMENT-STEP:
  Algorithm                         ... SuperCI(PT)
  Default Parametrization           ... CAYLEY
  Act-Act rotations                 ... depends on algorithm used

  Note: SuperCI(PT) will ignore FreezeIE, FreezeAct and FreezeGrad. In general Default settings are encouraged.
        In conjunction with ShiftUp, ShiftDn or GradScaling the performance of SuperCI(PT) is less optimal.  

  MaxRot                            ... 2.00e-01 
  Max. no of vectors (DIIS)         ... 15
  DThresh (cut-off) metric          ... 1.00e-06
  Switch step at gradient           ...  3.00e-02 
  Switch step at iteration          ...        50   
  Switch step to                    ... SuperCI(PT)    

SCF-SETTINGS:
  Incremental                       ... off
  RIJCOSX approximation             ... on
  UseFinalGrid                      ... on
  RI-JK approximation               ... off
  AO integral handling              ... DIRECT
  Integral Neglect Thresh           ...  2.50e-11
  Primitive cutoff TCut             ...  2.50e-12
  Energy convergence tolerance      ...  2.50e-08
  Orbital gradient convergence      ...  2.50e-04
  Max. number of iterations         ...        75  


PROPERTIES-SETTINGS:
  Spin orbit coupling               ... true
  GTensor                           ... true

FINAL ORBITALS:
  Active   Orbitals                 ... d-orbitals 
  Internal Orbitals                 ... canonical 
  External Orbitals                 ... canonical 

------------------
CAS-SCF ITERATIONS
------------------


MACRO-ITERATION   1: 
   --- Inactive Energy E0 = -574.77726200 Eh
CI-ITERATION   0: 
  -577.114797101   0.000000000000 (    0.04)
  -576.888308518   0.000000000000
   CI-PROBLEM SOLVED
   DENSITIES MADE

                 <<<<<<<<<<<<<<<<<<INITIAL CI STATE CHECK>>>>>>>>>>>>>>>>>>

BLOCK  1 MULT= 2 NROOTS= 2 
ROOT   0:  E=    -577.1147971015 Eh
      0.99576 [     0]: 21000
ROOT   1:  E=    -576.8883085175 Eh  6.163 eV  49708.5 cm**-1
      0.56871 [     1]: 20100
      0.31632 [     2]: 20010
      0.08745 [     4]: 12000
      0.02114 [     3]: 20001

                 <<<<<<<<<<<<<<<<<<INITIAL CI STATE CHECK>>>>>>>>>>>>>>>>>>

   E(CAS)=  -577.001552809 Eh DE=     0.000000000
   --- Energy gap subspaces: Ext-Act = 0.890   Act-Int = 0.069
   N(occ)=  1.94833 0.59092 0.28975 0.15976 0.01125
   ||g|| =      0.408211300 Max(G)=     0.116921560 Rot=55,52
   --- Orbital Update [SuperCI(PT)]
   --- Canonicalize Internal Space
   --- Canonicalize External Space
   --- SX_PT (Skipped TA=0 IT=0): ||X|| =      0.773836401 Max(X)(50,48) =      0.249677630 
   --- SFit(Active Orbitals)

MACRO-ITERATION   2: 
   --- Inactive Energy E0 = -574.97963128 Eh
CI-ITERATION   0: 
  -577.115183274   0.000000000000 (    0.02)
  -577.039286240   0.000000000000
   CI-PROBLEM SOLVED
   DENSITIES MADE
   E(CAS)=  -577.077234757 Eh DE=    -0.075681948
   --- Energy gap subspaces: Ext-Act = 0.974   Act-Int = 0.364
   N(occ)=  1.49610 1.47361 0.01646 0.01088 0.00296
   ||g|| =      0.381670527 Max(G)=    -0.121860568 Rot=50,45
   --- Orbital Update [SuperCI(PT)]
   --- Canonicalize Internal Space
   --- Canonicalize External Space
   --- SX_PT (Skipped TA=0 IT=0): ||X|| =      0.424530098 Max(X)(88,54) =     -0.175139273 
   --- SFit(Active Orbitals)

MACRO-ITERATION   3: 
   --- Inactive Energy E0 = -574.92820712 Eh
CI-ITERATION   0: 
  -577.116506535   0.000000000000 (    0.01)
  -577.095383980   0.000000000000
   CI-PROBLEM SOLVED
   DENSITIES MADE
   E(CAS)=  -577.105945257 Eh DE=    -0.028710500
   --- Energy gap subspaces: Ext-Act = 0.920   Act-Int = 0.381
   N(occ)=  1.48873 1.48304 0.01237 0.01113 0.00473
   ||g|| =      0.145563821 Max(G)=    -0.053979587 Rot=50,45
   --- Orbital Update [SuperCI(PT)]
   --- Canonicalize Internal Space
   --- Canonicalize External Space
   --- SX_PT (Skipped TA=0 IT=0): ||X|| =      0.264907606 Max(X)(88,54) =     -0.082258083 
   --- SFit(Active Orbitals)

MACRO-ITERATION   4: 
   --- Inactive Energy E0 = -574.96610601 Eh
CI-ITERATION   0: 
  -577.116397626   0.000000000000 (    0.02)
  -577.110000330   0.000000000000
   CI-PROBLEM SOLVED
   DENSITIES MADE
   E(CAS)=  -577.113198978 Eh DE=    -0.007253721
   --- Energy gap subspaces: Ext-Act = 0.841   Act-Int = 0.410
   N(occ)=  1.48839 1.48402 0.01019 0.01169 0.00571
   ||g|| =      0.175874704 Max(G)=    -0.043951640 Rot=73,29
   --- Orbital Update [SuperCI(PT)]
   --- Canonicalize Internal Space
   --- Canonicalize External Space
   --- SX_PT (Skipped TA=0 IT=0): ||X|| =      0.198219044 Max(X)(89,52) =     -0.074960049 
   --- SFit(Active Orbitals)

MACRO-ITERATION   5: 
   --- Inactive Energy E0 = -574.94384073 Eh
CI-ITERATION   0: 
  -577.118037752   0.000000000000 (    0.01)
  -577.113516742   0.000000000000
   CI-PROBLEM SOLVED
   DENSITIES MADE
   E(CAS)=  -577.115777247 Eh DE=    -0.002578269
   --- Energy gap subspaces: Ext-Act = 0.807   Act-Int = 0.397
   N(occ)=  1.48840 1.48504 0.00952 0.01106 0.00598
   ||g|| =      0.048842122 Max(G)=     0.012349935 Rot=73,29
   --- Orbital Update [SuperCI(PT)]
   --- Canonicalize Internal Space
   --- Canonicalize External Space
   --- SX_PT (Skipped TA=0 IT=0): ||X|| =      0.181558075 Max(X)(89,52) =     -0.065280341 
   --- SFit(Active Orbitals)

MACRO-ITERATION   6: 
   --- Inactive Energy E0 = -574.94818786 Eh
CI-ITERATION   0: 
  -577.118738745   0.000000000000 (    0.01)
  -577.113900670   0.000000000000
   CI-PROBLEM SOLVED
   DENSITIES MADE
   E(CAS)=  -577.116319708 Eh DE=    -0.000542461
   --- Energy gap subspaces: Ext-Act = 0.764   Act-Int = 0.403
   N(occ)=  1.48855 1.48535 0.00908 0.01093 0.00610
   ||g|| =      0.080119155 Max(G)=    -0.021624462 Rot=73,29
   --- Orbital Update [SuperCI(PT)]
   --- Canonicalize Internal Space
   --- Canonicalize External Space
   --- SX_PT (Skipped TA=0 IT=0): ||X|| =      0.178824198 Max(X)(77,54) =      0.048711948 
   --- SFit(Active Orbitals)

MACRO-ITERATION   7: 
   --- Inactive Energy E0 = -574.95599638 Eh
CI-ITERATION   0: 
  -577.119662968   0.000000000000 (    0.01)
  -577.114948892   0.000000000000
   CI-PROBLEM SOLVED
   DENSITIES MADE
   E(CAS)=  -577.117305930 Eh DE=    -0.000986223
   --- Energy gap subspaces: Ext-Act = 0.717   Act-Int = 0.401
   N(occ)=  1.48875 1.48549 0.00876 0.01097 0.00603
   ||g|| =      0.035160643 Max(G)=     0.005474955 Rot=58,44
   --- Orbital Update [SuperCI(PT)]
   --- Canonicalize Internal Space
   --- Canonicalize External Space
   --- SX_PT (Skipped TA=0 IT=0): ||X|| =      0.155245971 Max(X)(86,52) =      0.042044302 
   --- SFit(Active Orbitals)

MACRO-ITERATION   8: 
   --- Inactive Energy E0 = -574.93552567 Eh
CI-ITERATION   0: 
  -577.119552705   0.000000000000 (    0.01)
  -577.114796654   0.000000000000
   CI-PROBLEM SOLVED
   DENSITIES MADE
   E(CAS)=  -577.117174679 Eh DE=     0.000131251
   --- Energy gap subspaces: Ext-Act = 0.570   Act-Int = 0.399
   N(occ)=  1.48975 1.48632 0.00814 0.01065 0.00513
   ||g|| =      0.128084128 Max(G)=    -0.020121578 Rot=73,29
   --- Orbital Update [SuperCI(PT)]
   --- Canonicalize Internal Space
   --- Canonicalize External Space
   --- SX_PT (Skipped TA=0 IT=0): ||X|| =      0.150234943 Max(X)(62,52) =      0.058430058 
   --- SFit(Active Orbitals)

MACRO-ITERATION   9: 
   --- Inactive Energy E0 = -574.95301129 Eh
CI-ITERATION   0: 
  -577.120435155   0.000000000000 (    0.05)
  -577.116009120   0.000000000000
   CI-PROBLEM SOLVED
   DENSITIES MADE
   E(CAS)=  -577.118222138 Eh DE=    -0.001047458
   --- Energy gap subspaces: Ext-Act = 0.640   Act-Int = 0.400
   N(occ)=  1.48931 1.48602 0.00823 0.01068 0.00576
   ||g|| =      0.039047392 Max(G)=     0.005874052 Rot=58,44
   --- Orbital Update [SuperCI(PT)]
   --- Canonicalize Internal Space
   --- Canonicalize External Space
   --- SX_PT (Skipped TA=0 IT=0): ||X|| =      0.058295933 Max(X)(68,52) =      0.015022293 
   --- SFit(Active Orbitals)

MACRO-ITERATION  10: 
   --- Inactive Energy E0 = -574.94935289 Eh
CI-ITERATION   0: 
  -577.120521841   0.000000000000 (    0.01)
  -577.116074596   0.000000000000
   CI-PROBLEM SOLVED
   DENSITIES MADE
   E(CAS)=  -577.118298218 Eh DE=    -0.000076081
   --- Energy gap subspaces: Ext-Act = 0.641   Act-Int = 0.399
   N(occ)=  1.48948 1.48611 0.00814 0.01053 0.00574
   ||g|| =      0.009851614 Max(G)=     0.001516666 Rot=73,29
   --- Orbital Update [SuperCI(PT)]
   --- Canonicalize Internal Space
   --- Canonicalize External Space
   --- SX_PT (Skipped TA=0 IT=0): ||X|| =      0.070897685 Max(X)(68,52) =     -0.017985503 
   --- SFit(Active Orbitals)

MACRO-ITERATION  11: 
   --- Inactive Energy E0 = -574.94960550 Eh
CI-ITERATION   0: 
  -577.120600142   0.000000000000 (    0.01)
  -577.116142295   0.000000000000
   CI-PROBLEM SOLVED
   DENSITIES MADE
   E(CAS)=  -577.118371218 Eh DE=    -0.000073000
   --- Energy gap subspaces: Ext-Act = 0.627   Act-Int = 0.399
   N(occ)=  1.48961 1.48615 0.00808 0.01051 0.00566
   ||g|| =      0.009325579 Max(G)=     0.001297523 Rot=73,29
   --- Orbital Update [SuperCI(PT)]
   --- Canonicalize Internal Space
   --- Canonicalize External Space
   --- SX_PT (Skipped TA=0 IT=0): ||X|| =      0.049878623 Max(X)(77,53) =     -0.013804908 
   --- SFit(Active Orbitals)

MACRO-ITERATION  12: 
   --- Inactive Energy E0 = -574.95007174 Eh
CI-ITERATION   0: 
  -577.120620153   0.000000000000 (    0.01)
  -577.116151300   0.000000000000
   CI-PROBLEM SOLVED
   DENSITIES MADE
   E(CAS)=  -577.118385727 Eh DE=    -0.000014508
   --- Energy gap subspaces: Ext-Act = 0.624   Act-Int = 0.399
   N(occ)=  1.48974 1.48613 0.00800 0.01047 0.00565
   ||g|| =      0.014777007 Max(G)=     0.001898529 Rot=73,29
   --- Orbital Update [SuperCI(PT)]
   --- Canonicalize Internal Space
   --- Canonicalize External Space
   --- SX_PT (Skipped TA=0 IT=0): ||X|| =      0.048436961 Max(X)(68,52) =     -0.013864176 
   --- SFit(Active Orbitals)

MACRO-ITERATION  13: 
   --- Inactive Energy E0 = -574.94834347 Eh
CI-ITERATION   0: 
  -577.120639601   0.000000000000 (    0.01)
  -577.116137608   0.000000000000
   CI-PROBLEM SOLVED
   DENSITIES MADE
   E(CAS)=  -577.118388605 Eh DE=    -0.000002878
   --- Energy gap subspaces: Ext-Act = 0.625   Act-Int = 0.399
   N(occ)=  1.49003 1.48617 0.00782 0.01034 0.00564
   ||g|| =      0.007738534 Max(G)=     0.000984920 Rot=58,51
   --- Orbital Update [SuperCI(PT)]
   --- Canonicalize Internal Space
   --- Canonicalize External Space
   --- SX_PT (Skipped TA=0 IT=0): ||X|| =      0.065725081 Max(X)(68,52) =     -0.018172780 
   --- SFit(Active Orbitals)

MACRO-ITERATION  14: 
   --- Inactive Energy E0 = -574.94914655 Eh
CI-ITERATION   0: 
  -577.120699336   0.000000000000 (    0.00)
  -577.116160172   0.000000000000
   CI-PROBLEM SOLVED
   DENSITIES MADE
   E(CAS)=  -577.118429754 Eh DE=    -0.000041149
   --- Energy gap subspaces: Ext-Act = 0.617   Act-Int = 0.399
   N(occ)=  1.49019 1.48625 0.00770 0.01026 0.00559
   ||g|| =      0.007263613 Max(G)=     0.001195798 Rot=73,29
   --- Orbital Update [SuperCI(PT)]
   --- Canonicalize Internal Space
   --- Canonicalize External Space
   --- SX_PT (Skipped TA=0 IT=0): ||X|| =      0.052790735 Max(X)(68,52) =     -0.015390429 
   --- SFit(Active Orbitals)

MACRO-ITERATION  15: 
   --- Inactive Energy E0 = -574.94803821 Eh
CI-ITERATION   0: 
  -577.120746115   0.000000000000 (    0.03)
  -577.116184272   0.000000000000
   CI-PROBLEM SOLVED
   DENSITIES MADE
   E(CAS)=  -577.118465193 Eh DE=    -0.000035439
   --- Energy gap subspaces: Ext-Act = 0.607   Act-Int = 0.399
   N(occ)=  1.49044 1.48646 0.00750 0.01007 0.00553
   ||g|| =      0.006584500 Max(G)=    -0.000797199 Rot=70,32
   --- Orbital Update [SuperCI(PT)]
   --- Canonicalize Internal Space
   --- Canonicalize External Space
   --- SX_PT (Skipped TA=0 IT=0): ||X|| =      0.039005408 Max(X)(68,52) =     -0.011843201 
   --- SFit(Active Orbitals)

MACRO-ITERATION  16: 
   --- Inactive Energy E0 = -574.94929551 Eh
CI-ITERATION   0: 
  -577.120814693   0.000000000000 (    0.02)
  -577.116176874   0.000000000000
   CI-PROBLEM SOLVED
   DENSITIES MADE
   E(CAS)=  -577.118495784 Eh DE=    -0.000030590
   --- Energy gap subspaces: Ext-Act = 0.594   Act-Int = 0.399
   N(occ)=  1.49074 1.48679 0.00724 0.00980 0.00544
   ||g|| =      0.005931822 Max(G)=    -0.001267502 Rot=71,31
   --- Orbital Update [SuperCI(PT)]
   --- Canonicalize Internal Space
   --- Canonicalize External Space
   --- SX_PT (Skipped TA=0 IT=0): ||X|| =      0.015863550 Max(X)(68,52) =     -0.004886588 
   --- SFit(Active Orbitals)

MACRO-ITERATION  17: 
   --- Inactive Energy E0 = -574.94885821 Eh
CI-ITERATION   0: 
  -577.120832005   0.000000000000 (    0.02)
  -577.116173602   0.000000000000
   CI-PROBLEM SOLVED
   DENSITIES MADE
   E(CAS)=  -577.118502804 Eh DE=    -0.000007020
   --- Energy gap subspaces: Ext-Act = 0.587   Act-Int = 0.399
   N(occ)=  1.49089 1.48698 0.00710 0.00964 0.00539
   ||g|| =      0.002768921 Max(G)=     0.000687984 Rot=71,31
   --- Orbital Update [SuperCI(PT)]
   --- Canonicalize Internal Space
   --- Canonicalize External Space
   --- SX_PT (Skipped TA=0 IT=0): ||X|| =      0.003388625 Max(X)(84,53) =      0.000781974 
   --- SFit(Active Orbitals)

MACRO-ITERATION  18: 
   --- Inactive Energy E0 = -574.94878864 Eh
CI-ITERATION   0: 
  -577.120826952   0.000000000000 (    0.02)
  -577.116177756   0.000000000000
   CI-PROBLEM SOLVED
   DENSITIES MADE
   E(CAS)=  -577.118502354 Eh DE=     0.000000450
   --- Energy gap subspaces: Ext-Act = 0.590   Act-Int = 0.399
   N(occ)=  1.49085 1.48695 0.00713 0.00966 0.00541
   ||g|| =      0.003054001 Max(G)=    -0.000836506 Rot=71,31
   --- Orbital Update [SuperCI(PT)]
   --- Canonicalize Internal Space
   --- Canonicalize External Space
   --- SX_PT (Skipped TA=0 IT=0): ||X|| =      0.005431383 Max(X)(76,53) =     -0.001487448 
   --- SFit(Active Orbitals)

MACRO-ITERATION  19: 
   --- Inactive Energy E0 = -574.94876560 Eh
CI-ITERATION   0: 
  -577.120839694   0.000000000000 (    0.01)
  -577.116166336   0.000000000000
   CI-PROBLEM SOLVED
   DENSITIES MADE
   E(CAS)=  -577.118503015 Eh DE=    -0.000000661
   --- Energy gap subspaces: Ext-Act = 0.591   Act-Int = 0.399
   N(occ)=  1.49095 1.48708 0.00703 0.00954 0.00541
   ||g|| =      0.001278594 Max(G)=     0.000221157 Rot=72,30
   --- Orbital Update [SuperCI(PT)]
   --- Canonicalize Internal Space
   --- Canonicalize External Space
   --- SX_PT (Skipped TA=0 IT=0): ||X|| =      0.007699911 Max(X)(68,52) =     -0.002143376 
   --- SFit(Active Orbitals)

MACRO-ITERATION  20: 
   --- Inactive Energy E0 = -574.94880170 Eh
CI-ITERATION   0: 
  -577.120840340   0.000000000000 (    0.03)
  -577.116167920   0.000000000000
   CI-PROBLEM SOLVED
   DENSITIES MADE
   E(CAS)=  -577.118504130 Eh DE=    -0.000001115
   --- Energy gap subspaces: Ext-Act = 0.588   Act-Int = 0.399
   N(occ)=  1.49098 1.48712 0.00700 0.00951 0.00538
   ||g|| =      0.000933094 Max(G)=    -0.000164560 Rot=71,31
   --- Orbital Update [SuperCI(PT)]
   --- Canonicalize Internal Space
   --- Canonicalize External Space
   --- SX_PT (Skipped TA=0 IT=0): ||X|| =      0.001957507 Max(X)(76,54) =     -0.000543447 
   --- SFit(Active Orbitals)

MACRO-ITERATION  21: 
   --- Inactive Energy E0 = -574.94889208 Eh
CI-ITERATION   0: 
  -577.120842925   0.000000000000 (    0.01)
  -577.116165581   0.000000000000
   CI-PROBLEM SOLVED
   DENSITIES MADE
   E(CAS)=  -577.118504253 Eh DE=    -0.000000123
   --- Energy gap subspaces: Ext-Act = 0.589   Act-Int = 0.399
   N(occ)=  1.49099 1.48712 0.00699 0.00951 0.00539
   ||g|| =      0.000730434 Max(G)=     0.000107914 Rot=71,31
   --- Orbital Update [SuperCI(PT)]
   --- Canonicalize Internal Space
   --- Canonicalize External Space
   --- SX_PT (Skipped TA=0 IT=0): ||X|| =      0.000934078 Max(X)(62,53) =      0.000273778 
   --- SFit(Active Orbitals)

MACRO-ITERATION  22: 
   --- Inactive Energy E0 = -574.94886668 Eh
CI-ITERATION   0: 
  -577.120844216   0.000000000000 (    0.01)
  -577.116164425   0.000000000000
   CI-PROBLEM SOLVED
   DENSITIES MADE
   E(CAS)=  -577.118504320 Eh DE=    -0.000000067
   --- Energy gap subspaces: Ext-Act = 0.589   Act-Int = 0.399
   N(occ)=  1.49101 1.48715 0.00697 0.00949 0.00538
   ||g|| =      0.000389353 Max(G)=    -0.000081713 Rot=72,30
   --- Orbital Update [SuperCI(PT)]
   --- Canonicalize Internal Space
   --- Canonicalize External Space
   --- SX_PT (Skipped TA=0 IT=0): ||X|| =      0.000369289 Max(X)(76,52) =      0.000116126 
   --- SFit(Active Orbitals)

MACRO-ITERATION  23: 
   --- Inactive Energy E0 = -574.94885393 Eh
CI-ITERATION   0: 
  -577.120844595   0.000000000000 (    0.02)
  -577.116164070   0.000000000000
   CI-PROBLEM SOLVED
   DENSITIES MADE
   E(CAS)=  -577.118504333 Eh DE=    -0.000000012
   --- Energy gap subspaces: Ext-Act = 0.589   Act-Int = 0.399
   N(occ)=  1.49102 1.48715 0.00697 0.00948 0.00538
   ||g|| =      0.000153165 Max(G)=     0.000035659 Rot=72,30
                     ---- THE CAS-SCF ENERGY   HAS CONVERGED ----
                     ---- THE CAS-SCF GRADIENT HAS CONVERGED ----
                            --- FINALIZING ORBITALS ---
                    ---- DOING ONE FINAL ITERATION FOR PRINTING ----
   --- d-orbitals (depends on the molecular axis frame)
 L-Center:  0 Mo [13.532, 29.744, 25.611] 
 Setting 50 active MO to AO dxy     (22)
 Setting 51 active MO to AO dyz     (20)
 Setting 52 active MO to AO dz2     (18)
 Setting 53 active MO to AO dxz     (19)
 Setting 54 active MO to AO dx2y2   (21)
   --- Canonicalize Internal Space
   --- Canonicalize External Space

MACRO-ITERATION  24: 
   --- Inactive Energy E0 = -574.94885393 Eh
   --- All densities will be recomputed
CI-ITERATION   0: 
  -577.120844594   0.000000000000 (    0.01)
  -577.116164070   0.000000000000
   CI-PROBLEM SOLVED
   DENSITIES MADE
   E(CAS)=  -577.118504332 Eh DE=     0.000000001
   --- Energy gap subspaces: Ext-Act = -0.535   Act-Int = 0.411
   N(occ)=  0.63111 1.06917 0.62577 0.34717 0.32677
   ||g|| =      0.000153165 Max(G)=    -0.000021210 Rot=136,27
   --- Number of divergent steps = 2
--------------
CASSCF RESULTS
--------------

Final CASSCF energy       : -577.118504332 Eh  -15704.1929 eV

----------------
ORBITAL ENERGIES
----------------

  NO   OCC          E(Eh)            E(eV) 
   0   2.0000     -15.602405      -424.5630 
   1   2.0000     -15.575693      -423.8362 
   2   2.0000     -15.482172      -421.2913 
   3   2.0000     -15.474973      -421.0954 
   4   2.0000     -15.474033      -421.0699 
   5   2.0000     -11.254135      -306.2406 
   6   2.0000     -11.252115      -306.1856 
   7   2.0000     -11.251504      -306.1690 
   8   2.0000     -11.236976      -305.7737 
   9   2.0000     -11.234152      -305.6968 
  10   2.0000     -11.232828      -305.6608 
  11   2.0000      -2.965067       -80.6836 
  12   2.0000      -1.811705       -49.2990 
  13   2.0000      -1.810210       -49.2583 
  14   2.0000      -1.807091       -49.1735 
  15   2.0000      -1.210406       -32.9368 
  16   2.0000      -1.170534       -31.8518 
  17   2.0000      -1.084307       -29.5055 
  18   2.0000      -1.082726       -29.4625 
  19   2.0000      -1.066749       -29.0277 
  20   2.0000      -0.945420       -25.7262 
  21   2.0000      -0.943169       -25.6649 
  22   2.0000      -0.874328       -23.7917 
  23   2.0000      -0.784907       -21.3584 
  24   2.0000      -0.783426       -21.3181 
  25   2.0000      -0.746303       -20.3079 
  26   2.0000      -0.667962       -18.1762 
  27   2.0000      -0.667273       -18.1574 
  28   2.0000      -0.639740       -17.4082 
  29   2.0000      -0.637946       -17.3594 
  30   2.0000      -0.636285       -17.3142 
  31   2.0000      -0.610656       -16.6168 
  32   2.0000      -0.605656       -16.4807 
  33   2.0000      -0.572207       -15.5706 
  34   2.0000      -0.541716       -14.7408 
  35   2.0000      -0.536066       -14.5871 
  36   2.0000      -0.530542       -14.4368 
  37   2.0000      -0.511766       -13.9259 
  38   2.0000      -0.498823       -13.5737 
  39   2.0000      -0.495076       -13.4717 
  40   2.0000      -0.487942       -13.2776 
  41   2.0000      -0.475943       -12.9511 
  42   2.0000      -0.472651       -12.8615 
  43   2.0000      -0.453667       -12.3449 
  44   2.0000      -0.427469       -11.6320 
  45   2.0000      -0.424696       -11.5566 
  46   2.0000      -0.406621       -11.0647 
  47   2.0000      -0.331325        -9.0158 
  48   2.0000      -0.327603        -8.9145 
  49   2.0000      -0.296064        -8.0563 
  50   0.6311       0.254439         6.9236 
  51   1.0692       0.114520         3.1162 
  52   0.6258       0.211552         5.7566 
  53   0.3472       0.607314        16.5258 
  54   0.3268       0.616407        16.7733 
  55   0.0000       0.081119         2.2074 
  56   0.0000       0.121169         3.2972 
  57   0.0000       0.127919         3.4809 
  58   0.0000       0.155929         4.2430 
  59   0.0000       0.211540         5.7563 
  60   0.0000       0.213475         5.8090 
  61   0.0000       0.219573         5.9749 
  62   0.0000       0.246480         6.7071 
  63   0.0000       0.248155         6.7526 
  64   0.0000       0.250260         6.8099 
  65   0.0000       0.253972         6.9109 
  66   0.0000       0.264540         7.1985 
  67   0.0000       0.270160         7.3514 
  68   0.0000       0.272851         7.4247 
  69   0.0000       0.286670         7.8007 
  70   0.0000       0.287500         7.8233 
  71   0.0000       0.301507         8.2044 
  72   0.0000       0.304495         8.2857 
  73   0.0000       0.307204         8.3595 
  74   0.0000       0.310407         8.4466 
  75   0.0000       0.319015         8.6808 
  76   0.0000       0.337489         9.1835 
  77   0.0000       0.344894         9.3850 
  78   0.0000       0.354315         9.6414 
  79   0.0000       0.359513         9.7829 
  80   0.0000       0.397969        10.8293 
  81   0.0000       0.404715        11.0129 
  82   0.0000       0.428162        11.6509 
  83   0.0000       0.429399        11.6845 
  84   0.0000       0.435986        11.8638 
  85   0.0000       0.446968        12.1626 
  86   0.0000       0.449074        12.2199 
  87   0.0000       0.478487        13.0203 
  88   0.0000       0.481596        13.1049 
  89   0.0000       0.499439        13.5904 
  90   0.0000       0.544388        14.8136 
  91   0.0000       0.553196        15.0532 
  92   0.0000       0.609732        16.5917 
  93   0.0000       0.611943        16.6518 
  94   0.0000       0.654428        17.8079 
  95   0.0000       0.656204        17.8562 
  96   0.0000       0.689565        18.7640 
  97   0.0000       0.734461        19.9857 
  98   0.0000       0.741279        20.1712 
  99   0.0000       0.749002        20.3814 
 100   0.0000       0.761835        20.7306 
 101   0.0000       0.780364        21.2348 
 102   0.0000       0.781633        21.2693 
 103   0.0000       0.789598        21.4861 
 104   0.0000       0.810995        22.0683 
 105   0.0000       0.818617        22.2757 
 106   0.0000       0.833048        22.6684 
 107   0.0000       0.841022        22.8854 
 108   0.0000       0.843279        22.9468 
 109   0.0000       0.855927        23.2910 
 110   0.0000       0.863852        23.5066 
 111   0.0000       0.871511        23.7150 
 112   0.0000       0.874270        23.7901 
 113   0.0000       0.904451        24.6114 
 114   0.0000       0.908586        24.7239 
 115   0.0000       0.909788        24.7566 
 116   0.0000       0.917571        24.9684 
 117   0.0000       0.919790        25.0287 
 118   0.0000       0.924091        25.1458 
 119   0.0000       0.924689        25.1621 
 120   0.0000       0.927126        25.2284 
 121   0.0000       0.933338        25.3974 
 122   0.0000       0.950710        25.8701 
 123   0.0000       0.962634        26.1946 
 124   0.0000       0.966815        26.3084 
 125   0.0000       0.986007        26.8306 
 126   0.0000       0.993598        27.0372 
 127   0.0000       0.998734        27.1769 
 128   0.0000       1.008501        27.4427 
 129   0.0000       1.011774        27.5318 
 130   0.0000       1.022038        27.8111 
 131   0.0000       1.069082        29.0912 
 132   0.0000       1.073836        29.2206 
 133   0.0000       1.081397        29.4263 
 134   0.0000       1.114652        30.3312 
 135   0.0000       1.117232        30.4014 
 136   0.0000       1.132421        30.8148 
 137   0.0000       1.150904        31.3177 
 138   0.0000       1.165203        31.7068 
 139   0.0000       1.172834        31.9144 
 140   0.0000       1.182117        32.1670 
 141   0.0000       1.225794        33.3555 
 142   0.0000       1.248164        33.9643 
 143   0.0000       1.257591        34.2208 
 144   0.0000       1.272743        34.6331 
 145   0.0000       1.281789        34.8793 
 146   0.0000       1.291426        35.1415 
 147   0.0000       1.312111        35.7044 
 148   0.0000       1.324552        36.0429 
 149   0.0000       1.339099        36.4387 
 150   0.0000       1.375819        37.4379 
 151   0.0000       1.378009        37.4975 
 152   0.0000       1.394778        37.9538 
 153   0.0000       1.413846        38.4727 
 154   0.0000       1.428888        38.8820 
 155   0.0000       1.438145        39.1339 
 156   0.0000       1.459736        39.7214 
 157   0.0000       1.475654        40.1546 
 158   0.0000       1.498229        40.7689 
 159   0.0000       1.515725        41.2450 
 160   0.0000       1.524814        41.4923 
 161   0.0000       1.546569        42.0843 
 162   0.0000       1.550668        42.1958 
 163   0.0000       1.567130        42.6438 
 164   0.0000       1.586824        43.1797 
 165   0.0000       1.604683        43.6656 
 166   0.0000       1.606328        43.7104 
 167   0.0000       1.619247        44.0619 
 168   0.0000       1.627888        44.2971 
 169   0.0000       1.670615        45.4597 
 170   0.0000       1.686854        45.9016 
 171   0.0000       1.732703        47.1492 
 172   0.0000       1.737215        47.2720 
 173   0.0000       1.750510        47.6338 
 174   0.0000       1.796410        48.8828 
 175   0.0000       1.811473        49.2927 
 176   0.0000       1.835291        49.9408 
 177   0.0000       1.836050        49.9615 
 178   0.0000       1.873901        50.9914 
 179   0.0000       1.894156        51.5426 
 180   0.0000       1.912010        52.0284 
 181   0.0000       1.920584        52.2617 
 182   0.0000       1.922156        52.3045 
 183   0.0000       1.930412        52.5292 
 184   0.0000       1.976843        53.7926 
 185   0.0000       1.992397        54.2159 
 186   0.0000       2.018183        54.9176 
 187   0.0000       2.027898        55.1819 
 188   0.0000       2.035654        55.3929 
 189   0.0000       2.038418        55.4682 
 190   0.0000       2.050600        55.7997 
 191   0.0000       2.063228        56.1433 
 192   0.0000       2.076749        56.5112 
 193   0.0000       2.085707        56.7550 
 194   0.0000       2.090787        56.8932 
 195   0.0000       2.096607        57.0516 
 196   0.0000       2.110951        57.4419 
 197   0.0000       2.115024        57.5527 
 198   0.0000       2.118226        57.6399 
 199   0.0000       2.145650        58.3861 
 200   0.0000       2.151556        58.5468 
 201   0.0000       2.175480        59.1978 
 202   0.0000       2.178274        59.2739 
 203   0.0000       2.190447        59.6051 
 204   0.0000       2.195151        59.7331 
 205   0.0000       2.204519        59.9880 
 206   0.0000       2.207175        60.0603 
 207   0.0000       2.227367        60.6097 
 208   0.0000       2.229271        60.6615 
 209   0.0000       2.237489        60.8852 
 210   0.0000       2.238752        60.9195 
 211   0.0000       2.243065        61.0369 
 212   0.0000       2.256616        61.4056 
 213   0.0000       2.277967        61.9866 
 214   0.0000       2.292577        62.3842 
 215   0.0000       2.301995        62.6405 
 216   0.0000       2.324489        63.2526 
 217   0.0000       2.360541        64.2336 
 218   0.0000       2.365659        64.3728 
 219   0.0000       2.374208        64.6055 
 220   0.0000       2.380495        64.7766 
 221   0.0000       2.400509        65.3212 
 222   0.0000       2.420152        65.8557 
 223   0.0000       2.441463        66.4356 
 224   0.0000       2.454241        66.7833 
 225   0.0000       2.496552        67.9346 
 226   0.0000       2.509068        68.2752 
 227   0.0000       2.522765        68.6479 
 228   0.0000       2.524472        68.6944 
 229   0.0000       2.548703        69.3537 
 230   0.0000       2.565007        69.7974 
 231   0.0000       2.589745        70.4705 
 232   0.0000       2.605383        70.8961 
 233   0.0000       2.624849        71.4258 
 234   0.0000       2.678598        72.8884 
 235   0.0000       2.691214        73.2316 
 236   0.0000       2.700189        73.4759 
 237   0.0000       2.701931        73.5233 
 238   0.0000       2.721297        74.0503 
 239   0.0000       2.725639        74.1684 
 240   0.0000       2.740817        74.5814 
 241   0.0000       2.751867        74.8821 
 242   0.0000       2.757913        75.0466 
 243   0.0000       2.766328        75.2756 
 244   0.0000       2.797377        76.1205 
 245   0.0000       2.813514        76.5596 
 246   0.0000       2.815288        76.6079 
 247   0.0000       2.855642        77.7060 
 248   0.0000       2.877628        78.3043 
 249   0.0000       2.881399        78.4068 
 250   0.0000       2.924353        79.5757 
 251   0.0000       2.948225        80.2253 
 252   0.0000       2.960441        80.5577 
 253   0.0000       2.977593        81.0244 
 254   0.0000       2.980405        81.1009 
 255   0.0000       2.994811        81.4930 
 256   0.0000       3.004857        81.7663 
 257   0.0000       3.043250        82.8110 
 258   0.0000       3.052168        83.0537 
 259   0.0000       3.077176        83.7342 
 260   0.0000       3.082778        83.8867 
 261   0.0000       3.089509        84.0698 
 262   0.0000       3.096379        84.2568 
 263   0.0000       3.136519        85.3490 
 264   0.0000       3.144064        85.5543 
 265   0.0000       3.160246        85.9947 
 266   0.0000       3.205764        87.2333 
 267   0.0000       3.211056        87.3773 
 268   0.0000       3.223174        87.7070 
 269   0.0000       3.230348        87.9022 
 270   0.0000       3.260813        88.7312 
 271   0.0000       3.270550        88.9962 
 272   0.0000       3.286913        89.4415 
 273   0.0000       3.295269        89.6688 
 274   0.0000       3.319784        90.3359 
 275   0.0000       3.335552        90.7650 
 276   0.0000       3.345981        91.0488 
 277   0.0000       3.357388        91.3592 
 278   0.0000       3.368552        91.6630 
 279   0.0000       3.379707        91.9665 
 280   0.0000       3.397469        92.4498 
 281   0.0000       3.421655        93.1080 
 282   0.0000       3.431104        93.3651 
 283   0.0000       3.456413        94.0538 
 284   0.0000       3.461157        94.1829 
 285   0.0000       3.523508        95.8795 
 286   0.0000       3.551234        96.6340 
 287   0.0000       3.551961        96.6538 
 288   0.0000       3.575051        97.2821 
 289   0.0000       3.667454        99.7965 
 290   0.0000       3.718865       101.1955 
 291   0.0000       3.723796       101.3296 
 292   0.0000       3.799867       103.3996 
 293   0.0000       3.811711       103.7219 
 294   0.0000       3.829235       104.1988 
 295   0.0000       3.869179       105.2857 
 296   0.0000       3.914324       106.5142 
 297   0.0000       4.039908       109.9315 
 298   0.0000      24.940403       678.6629 
 299   0.0000      85.981740      2339.6821 


---------------------------------------------
CAS-SCF STATES FOR BLOCK  1 MULT= 2 NROOTS= 2
---------------------------------------------

ROOT   0:  E=    -577.1208445940 Eh
      0.20104 [     5]: 11100
      0.12289 [     7]: 11001
      0.11188 [    19]: 01101
      0.09869 [     0]: 21000
      0.04856 [    17]: 01200
      0.04514 [     6]: 11010
      0.04351 [     9]: 10110
      0.03761 [    10]: 10101
      0.03526 [     4]: 12000
      0.03304 [    12]: 10011
      0.03122 [     2]: 20010
      0.02725 [    14]: 02100
      0.02188 [    18]: 01110
      0.01747 [    21]: 01011
      0.01733 [    22]: 01002
      0.01726 [    26]: 00111
      0.01583 [     8]: 10200
      0.01483 [    24]: 00201
      0.01437 [    16]: 02001
      0.01048 [     1]: 20100
      0.00965 [    27]: 00102
      0.00612 [    15]: 02010
      0.00582 [    23]: 00210
      0.00537 [     3]: 20001
      0.00359 [    29]: 00012
ROOT   1:  E=    -577.1161640696 Eh  0.127 eV   1027.3 cm**-1
      0.14654 [    14]: 02100
      0.14614 [     4]: 12000
      0.13553 [     6]: 11010
      0.11545 [    18]: 01110
      0.07881 [     5]: 11100
      0.05909 [    19]: 01101
      0.05817 [    16]: 02001
      0.05291 [    17]: 01200
      0.04480 [    21]: 01011
      0.03659 [    15]: 02010
      0.02611 [     9]: 10110
      0.01810 [    26]: 00111
      0.01554 [    11]: 10020
      0.01152 [     7]: 11001
      0.01148 [    20]: 01020
      0.00914 [    23]: 00210
      0.00745 [    24]: 00201
      0.00663 [    25]: 00120
      0.00395 [    10]: 10101
      0.00388 [    28]: 00021
      0.00349 [    12]: 10011


--------------
DENSITY MATRIX
--------------

                   0          1          2          3          4    
      0       0.631110   0.221001  -0.532152   0.167978  -0.419170
      1       0.221001   1.069175   0.210463  -0.480000  -0.348117
      2      -0.532152   0.210463   0.625769  -0.363817   0.275332
      3       0.167978  -0.480000  -0.363817   0.347174  -0.003165
      4      -0.419170  -0.348117   0.275332  -0.003165   0.326773
Trace of the electron density:  3.000000
Extracting Spin-Density from 2-RDM (MULT=2) ... done

-------------------
SPIN-DENSITY MATRIX
-------------------

                   0          1          2          3          4    
      0       0.210554   0.072459  -0.186998   0.056097  -0.131711
      1       0.072459   0.373696   0.066383  -0.155966  -0.113673
      2      -0.186998   0.066383   0.214900  -0.115310   0.091736
      3       0.056097  -0.155966  -0.115310   0.103933  -0.000816
      4      -0.131711  -0.113673   0.091736  -0.000816   0.096918
Trace of the spin density:  1.000000

-----------------
ENERGY COMPONENTS
-----------------

One electron energy          :  -2659.882464381 Eh      -72379.0815 eV
Two electron energy          :   1153.132913026 Eh       31378.3418 eV
Nuclear repulsion energy     :    929.631047023 Eh       25296.5468 eV
                               ----------------
                                 -577.118504332

Kinetic energy               :    529.557289985 Eh       14409.9865 eV
Potential energy             :  -1106.675794317 Eh      -30114.1793 eV
Virial ratio                 :     -2.089813161 
                               ----------------
                                 -577.118504332

Core energy                  :   -574.948853929 Eh   -15645.1537 eV


----------------------------
LOEWDIN ORBITAL-COMPOSITIONS
----------------------------

                      0         1         2         3         4         5   
                 -15.60240 -15.57569 -15.48217 -15.47497 -15.47403 -11.25414
                   2.00000   2.00000   2.00000   2.00000   2.00000   2.00000
                  --------  --------  --------  --------  --------  --------
 1 N  s               0.0       0.0      99.7       0.0       0.0       0.0
 2 N  s               0.0       0.0       0.0       0.0      99.7       0.0
 3 N  s               0.0       0.0       0.0      99.7       0.0       0.0
 4 N  s               0.0      99.7       0.0       0.0       0.0       0.0
 5 N  s              99.7       0.0       0.0       0.0       0.0       0.0
12 C  s               0.0       0.0       0.0       0.0       0.0      99.5

                      6         7         8         9        10        11   
                 -11.25212 -11.25150 -11.23698 -11.23415 -11.23283  -2.96507
                   2.00000   2.00000   2.00000   2.00000   2.00000   2.00000
                  --------  --------  --------  --------  --------  --------
 0 Mo s               0.0       0.0       0.0       0.0       0.0      97.2
 1 N  pz              0.0       0.0       0.1       0.0       0.0       0.1
 1 N  px              0.0       0.0       0.0       0.0       0.0       0.5
 2 N  px              0.0       0.0       0.0       0.0       0.0       0.4
 2 N  py              0.0       0.0       0.0       0.0       0.0       0.2
 3 N  py              0.0       0.0       0.0       0.0       0.0       0.6
 4 N  pz              0.0       0.0       0.0       0.0       0.0       0.2
 5 N  pz              0.0       0.0       0.0       0.0       0.0       0.2
 9 C  s               0.0       0.0      99.5       0.0       0.0       0.0
15 C  s               0.0       0.0       0.0       0.0      99.5       0.0
18 C  s               0.0      99.5       0.0       0.0       0.0       0.0
21 C  s               0.0       0.0       0.0      99.5       0.0       0.0
24 C  s              99.5       0.0       0.0       0.0       0.0       0.0

                     12        13        14        15        16        17   
                  -1.81170  -1.81021  -1.80709  -1.21041  -1.17053  -1.08431
                   2.00000   2.00000   2.00000   2.00000   2.00000   2.00000
                  --------  --------  --------  --------  --------  --------
 0 Mo s               0.0       0.0       0.0       2.2       0.8       0.0
 0 Mo pz             14.8       0.2      82.7       3.0       2.8       0.5
 0 Mo px             68.5      18.0      10.9       0.2       0.2       4.4
 0 Mo py             14.0      79.1       4.3       0.2       0.2       0.5
 0 Mo dz2             0.0       0.0       0.0       1.7       1.7       0.3
 0 Mo dxz             0.0       0.0       0.0       0.4       0.4       2.0
 0 Mo dyz             0.0       0.0       0.0       0.3       0.3       0.1
 0 Mo dx2y2           0.0       0.0       0.0       0.0       0.0       1.5
 0 Mo dxy             0.0       0.0       0.0       0.0       0.0       0.8
 0 Mo f0              0.0       0.0       0.0       0.1       0.2       0.1
 0 Mo f+1             0.0       0.0       0.0       0.1       0.1       0.0
 0 Mo f-1             0.0       0.0       0.0       0.1       0.1       0.0
 1 N  s               0.5       0.0       0.0       0.6       0.0      21.8
 1 N  pz              0.2       0.0       0.0       0.1       0.0       2.0
 1 N  px              0.9       0.0       0.0       0.0       0.0       0.3
 2 N  s               0.1       0.3       0.0       0.6       0.0       4.4
 2 N  pz              0.0       0.0       0.0       0.1       0.0       0.3
 2 N  px              0.0       0.6       0.0       0.0       0.0       0.1
 2 N  py              0.1       0.2       0.0       0.0       0.0       0.1
 3 N  s               0.1       0.3       0.0       0.5       0.0       4.1
 3 N  pz              0.0       0.0       0.0       0.1       0.0       0.2
 3 N  py              0.4       0.6       0.0       0.0       0.0       0.2
 4 N  s               0.0       0.0       0.2      36.0       0.3       0.0
 4 N  pz              0.0       0.0       0.6       0.9       0.0       0.2
 4 N  px              0.0       0.0       0.0       0.1       0.0       1.3
 4 N  py              0.0       0.0       0.0       0.1       0.0       0.3
 5 N  s               0.0       0.0       0.2       0.3      47.6       0.0
 5 N  pz              0.0       0.0       0.4       0.0       1.1       0.0
 6 H  s               0.0       0.0       0.0       0.1      12.2       0.0
 6 H  pz              0.0       0.0       0.0       0.0       0.3       0.0
 6 H  px              0.0       0.0       0.0       0.0       1.2       0.0
 6 H  py              0.0       0.0       0.0       0.0       0.9       0.0
 7 H  s               0.0       0.0       0.0       0.1      12.2       0.0
 7 H  pz              0.0       0.0       0.0       0.0       0.7       0.0
 7 H  py              0.0       0.0       0.0       0.0       1.7       0.0
 8 H  s               0.0       0.0       0.0       0.1      12.1       0.0
 8 H  px              0.0       0.0       0.0       0.0       1.9       0.0
 8 H  py              0.0       0.0       0.0       0.0       0.5       0.0
 9 C  s               0.0       0.0       0.0       1.3       0.0      14.7
 9 C  pz              0.0       0.0       0.0       0.0       0.0       2.1
 9 C  px              0.0       0.0       0.0       0.9       0.0       0.4
 9 C  py              0.0       0.0       0.0       0.0       0.0       0.1
 9 C  dz2             0.0       0.0       0.0       0.0       0.0       0.2
10 H  s               0.0       0.0       0.0       0.2       0.0       2.6
10 H  py              0.0       0.0       0.0       0.0       0.0       0.1
11 H  s               0.0       0.0       0.0       0.2       0.0       2.4
11 H  py              0.0       0.0       0.0       0.0       0.0       0.2
12 C  s               0.0       0.0       0.0       7.4       0.1       4.5
12 C  pz              0.0       0.0       0.0       1.8       0.0       0.5
12 C  px              0.0       0.0       0.0       1.4       0.0       1.8
12 C  py              0.0       0.0       0.0       1.1       0.0       0.0
12 C  dxz             0.0       0.0       0.0       0.1       0.0       0.0
13 H  s               0.0       0.0       0.0       1.1       0.0       0.7
14 H  s               0.0       0.0       0.0       1.2       0.0       0.8
14 H  py              0.0       0.0       0.0       0.1       0.0       0.1
15 C  s               0.0       0.0       0.0       1.3       0.0       3.2
15 C  pz              0.0       0.0       0.0       0.0       0.0       0.3
15 C  px              0.0       0.0       0.0       0.2       0.0       0.1
15 C  py              0.0       0.0       0.0       0.7       0.0       0.1
16 H  s               0.0       0.0       0.0       0.2       0.0       0.5
17 H  s               0.0       0.0       0.0       0.2       0.0       0.6
18 C  s               0.0       0.0       0.0       7.5       0.1       1.5
18 C  pz              0.0       0.0       0.0       0.1       0.0       0.2
18 C  px              0.0       0.0       0.0       4.0       0.0       0.0
18 C  py              0.0       0.0       0.0       0.2       0.0       0.1
18 C  dx2y2           0.0       0.0       0.0       0.1       0.0       0.0
19 H  s               0.0       0.0       0.0       1.1       0.0       0.2
20 H  s               0.0       0.0       0.0       1.2       0.0       0.4
21 C  s               0.0       0.0       0.0       1.2       0.0       3.0
21 C  pz              0.0       0.0       0.0       0.3       0.0       0.1
21 C  px              0.0       0.0       0.0       0.1       0.0       0.1
21 C  py              0.0       0.0       0.0       0.5       0.0       0.2
22 H  s               0.0       0.0       0.0       0.2       0.0       0.5
23 H  s               0.0       0.0       0.0       0.2       0.0       0.5
24 C  s               0.0       0.0       0.0       7.4       0.1       0.9
24 C  pz              0.0       0.0       0.0       0.1       0.0       0.4
24 C  px              0.0       0.0       0.0       0.1       0.0       0.1
24 C  py              0.0       0.0       0.0       4.1       0.0       0.1
24 C  dx2y2           0.0       0.0       0.0       0.2       0.0       0.0
25 H  s               0.0       0.0       0.0       1.1       0.0       0.2
26 H  s               0.0       0.0       0.0       1.2       0.0       0.1
26 H  px              0.0       0.0       0.0       0.1       0.0       0.0
27 H  s               0.0       0.0       0.0       0.1       0.0       0.9
27 H  pz              0.0       0.0       0.0       0.0       0.0       0.1
28 H  s               0.0       0.0       0.0       0.1       0.0       5.1
28 H  pz              0.0       0.0       0.0       0.0       0.0       0.2
28 H  px              0.0       0.0       0.0       0.0       0.0       0.6
29 H  s               0.0       0.0       0.0       0.1       0.0       1.0
29 H  py              0.0       0.0       0.0       0.0       0.0       0.1

                     18        19        20        21        22        23   
                  -1.08273  -1.06675  -0.94542  -0.94317  -0.87433  -0.78491
                   2.00000   2.00000   2.00000   2.00000   2.00000   2.00000
                  --------  --------  --------  --------  --------  --------
[...]
  X          -0.4293670   -0.8793833   -0.2057402
  Y          -0.8637217    0.4663943   -0.1909483
  Z           0.2638728    0.0957153   -0.9597967

Notes:  (1) The g-matrix conforms to the "BgS" spin Hamiltonian convention.
        (2) The principal values are square roots of the eigenvalues of g*gT
        (3) Orientations are eigenvectors of g*gT written as column vectors
        (4) Tensor is right-handed


-------------------------------------------------------------------------------------------
                       TRANSITION MAGNETIC DIPOLE CONTRIBUTIONS  
       (theta is the angle between the gz component of the lowest and the nth Kramers pairs)
-------------------------------------------------------------------------------------------
Ms States     Energy        M2            MX             MY            MZ            theta  
              (cm-1)      (au**2)        (au)           (au)          (au)           (Deg)  
-------------------------------------------------------------------------------------------
 0  0         0.00     0.00035173     0.00385855     0.00358114     0.01800050     180.00
 0  1         0.00     0.00003252     0.00117327     0.00108892     0.00547343     180.00
 1  1         0.00     0.00035173     0.00385855     0.00358114     0.01800050     180.00

----------------------------------------------
ELECTRONIC G-MATRIX FROM EFFECTIVE HAMILTONIAN
----------------------------------------------
Spin multiplicity = 2

g-matrix:
    2.003575     0.001604     0.007820 
    0.001628     2.003309     0.007256 
    0.008182     0.007480     2.038278 

g-factors:
    2.001819     2.001820     2.041523 iso =     2.015054

g-shifts:
   -0.000500    -0.000499     0.039204 iso =     0.012735
 Orientation: 
  X           0.8247201    0.5250089   -0.2102437
  Y           0.4912466   -0.8492253   -0.1936319
  Z          -0.2802027    0.0564106   -0.9582820

Notes:  (1) The g-matrix conforms to the "BgS" spin Hamiltonian convention.
        (2) The principal values are square roots of the eigenvalues of g*gT
        (3) Orientations are eigenvectors of g*gT written as column vectors
        (4) Tensor is right-handed


--------------------------------
SOC CORRECTED EXCITATION SPECTRA
--------------------------------

Dim(SO)                  = 4
Number of initial states = -1
Center of mass           = ( 13.8757, 30.0350, 26.9124)
Nuclear contribution to the dipole moment =    13.082352,   11.342275,   51.342754 au

Calculating the dipole integrals          ... done

------------------------------------------------------------------------------------------
                    SOC CORRECTED ABSORPTION SPECTRUM
------------------------------------------------------------------------------------------
  States   Energy   Wavelength   fosc          T2       |TX|       |TY|      |TZ| 
           (cm-1)     (nm)                   (D**2)      (D)        (D)       (D) 
------------------------------------------------------------------------------------------
 0  1       0.0      0.0   0.000000000   0.00000   0.00000   0.00000   0.00000
 0  2    1027.5   9732.2   0.000005202   0.02166   0.03003   0.11420   0.08783
 0  3    1027.5   9732.2   0.000000481   0.00200   0.00913   0.03472   0.02671
 1  2    1027.5   9732.2   0.000000481   0.00200   0.00913   0.03472   0.02671
 1  3    1027.5   9732.2   0.000005202   0.02166   0.03003   0.11420   0.08783

------------------------------------------------------------------------------
                           SOC CORRECTED DIPOLE MOMENTS
------------------------------------------------------------------------------
      TX        TY        TZ           |T|
   (Debye)   (Debye)   (Debye)      (Debye)
------------------------------------------------------------------------------
  33.25270  28.82977 130.50291    137.72402


                 =============================
                 AB INITIO LIGAND FIELD THEORY
                       d3 configuration
                          1 CI blocks
                         MOs 50 to 54
                 =============================

Metal center is atom 0
orbital phases =   1.0   1.0  -1.0   1.0  -1.0 
Metal d-orbital parts of active orbitals
Shell 10
             50        51        52        53        54
dz2     : -0.257975 -0.226466  0.356864  0.044780 -0.234696
dxz     :  0.536295 -0.338991 -0.363944 -0.281656  0.173055
dyz     :  0.258033  0.745923  0.038412  0.262878  0.288762
dx2y2   : -0.174326 -0.084100 -0.526639 -0.170964  0.039473
dxy     :  0.407584  0.015620 -0.022479 -0.041603  0.149831
Shell 11
             50        51        52        53        54
dz2     :  0.036419 -0.083519  0.173464 -0.045839  0.250569
dxz     :  0.162817 -0.090778 -0.022131  0.339983 -0.183530
dyz     : -0.005493  0.185720 -0.067681 -0.284489 -0.311551
dx2y2   : -0.192692  0.047054 -0.278739  0.148676 -0.021899
dxy     :  0.150030 -0.025919  0.050154  0.049980 -0.159674
Shell 12
             50        51        52        53        54
dz2     :  0.107512 -0.005284  0.050436 -0.067576  0.403680
dxz     :  0.003703  0.012605  0.108360  0.537676 -0.292202
dyz     :  0.039317 -0.101170  0.046481 -0.446484 -0.485206
dx2y2   : -0.093838  0.058128 -0.054311  0.285216 -0.014985
dxy     :  0.010489 -0.025602  0.047600  0.042240 -0.261384

Adjusting phases of one-electron integrals   ... done
Adjusting phases of two-electron integrals   ... done
Calculating ab initio Hamiltonian matrices   ... done
Computing F0s from 2-electron integrals      ... done 
F0   =  0.416371431 a.u. =    11.330 eV =   91383.0 cm**-1
Preparing for fit                            ... done
Calculating fit matrices                     ... done

------------------------------
AILFT MATRIX ELEMENTS (CASSCF)
------------------------------

Ligand field one-electron matrix VLFT (a.u.) : 
                   0          1          2          3          4    
      0      -0.930769  -0.007776  -0.036091  -0.080343  -0.247563
      1      -0.007776  -0.988045  -0.010550   0.238974  -0.159061
      2      -0.036091  -0.010550  -0.969090  -0.184626  -0.096488
      3      -0.080343   0.238974  -0.184626  -0.502178  -0.007047
      4      -0.247563  -0.159061  -0.096488  -0.007047  -0.494711

Slater-Condon Parameters (electronic repulsion) : 
F0dd            =  0.416371431 a.u. =    11.330 eV =   91383.0 cm**-1
F2dd            =  0.201023112 a.u. =     5.470 eV =   44119.5 cm**-1
F4dd            =  0.462730824 a.u. =    12.592 eV =  101557.7 cm**-1
Racah Parameters : 
A               =  0.364956895 a.u. =     9.931 eV =   80098.8 cm**-1
B               = -0.001143869 a.u. =    -0.031 eV =    -251.1 cm**-1
C               =  0.036724669 a.u. =     0.999 eV =    8060.1 cm**-1
C/B = -32.106

The ligand field one electron eigenfunctions:
Orbital    Energy (eV)  Energy(cm-1)      dxy        dyz        dz2        dxz        dx2-y2
    1          0.000        0.0        -0.654659  -0.289136  -0.549255  -0.138505  -0.408604 
    2          0.140     1125.7         0.046471  -0.819088   0.363607   0.422642  -0.126884 
    3          5.657    45624.8         0.647911  -0.294195  -0.694256  -0.011882   0.107366 
    4         21.343   172144.6        -0.310873   0.147225  -0.282969   0.721930   0.529556 
    5         21.710   175105.0        -0.229849  -0.370499   0.063618  -0.529968   0.724560 
Ligand field orbitals were stored in Mo-TAEA-NH3_0_2_casscf-3-5-2_def2-tzvp_def2-svp.epr.casscf.lft.gbw

Calculating ligand field Hamiltonian matrices          ... done
Diagonalizing and fitting the ligand field Hamiltonian ... done
Calculating statistical parameters                     ... done

Reference energy AI-LFT =     -2.171840650 au
Reference energy AI     =     -2.171990665 au

------------------------------------------------
COMPARISON OF AB INITIO AND LIGAND FIELD RESULTS
------------------------------------------------

Block   1
---------
   AI-Root   0: E(AI)=    0.000 eV -> LF-Root   0:     0.000 eV    S= 0.987 Delta=    0.000 eV
   AI-Root   1: E(AI)=    0.127 eV -> LF-Root   1:     0.135 eV    S= 0.987 Delta=   -0.008 eV
   AI-Root   2: E(AI)=    4.880 eV -> LF-Root   2:     5.142 eV    S= 0.719 Delta=   -0.262 eV
   AI-Root   3: E(AI)=    5.344 eV -> LF-Root   3:     5.150 eV    S= 0.959 Delta=    0.194 eV
   AI-Root   4: E(AI)=    6.057 eV -> LF-Root   4:     5.005 eV    S= 0.734 Delta=    1.052 eV
   AI-Root   5: E(AI)=    6.565 eV -> LF-Root   5:     7.003 eV    S= 0.977 Delta=   -0.438 eV
   AI-Root   6: E(AI)=   11.010 eV -> LF-Root   6:    11.650 eV    S= 0.906 Delta=   -0.640 eV
   AI-Root   7: E(AI)=   11.572 eV -> LF-Root   7:    11.756 eV    S= 0.906 Delta=   -0.184 eV
   AI-Root   8: E(AI)=   18.842 eV -> LF-Root   8:    20.617 eV    S= 0.626 Delta=   -1.774 eV
   AI-Root   9: E(AI)=   19.011 eV -> LF-Root   9:    21.025 eV    S= 0.507 Delta=   -2.013 eV
   AI-Root  10: E(AI)=   19.807 eV -> LF-Root  10:    21.169 eV    S= 0.623 Delta=   -1.362 eV
   AI-Root  11: E(AI)=   19.812 eV -> LF-Root  11:    20.617 eV    S= 0.672 Delta=   -0.804 eV
   AI-Root  12: E(AI)=   21.208 eV -> LF-Root  12:    22.407 eV    S= 0.837 Delta=   -1.199 eV
   AI-Root  13: E(AI)=   21.557 eV -> LF-Root  13:    22.916 eV    S= 0.879 Delta=   -1.359 eV
   AI-Root  14: E(AI)=   23.779 eV -> LF-Root  14:    26.299 eV    S= 0.618 Delta=   -2.520 eV
   AI-Root  15: E(AI)=   24.233 eV -> LF-Root  15:    20.553 eV    S= 0.692 Delta=    3.679 eV
   AI-Root  16: E(AI)=   24.436 eV -> LF-Root  16:    21.025 eV    S= 0.785 Delta=    3.411 eV
   AI-Root  17: E(AI)=   24.922 eV -> LF-Root  17:    26.361 eV    S= 0.663 Delta=   -1.440 eV
   AI-Root  18: E(AI)=   25.346 eV -> LF-Root  18:    26.229 eV    S= 0.837 Delta=   -0.883 eV
   AI-Root  19: E(AI)=   25.862 eV -> LF-Root  19:    26.848 eV    S= 0.776 Delta=   -0.986 eV
   AI-Root  20: E(AI)=   27.735 eV -> LF-Root  20:    26.550 eV    S= 0.740 Delta=    1.186 eV
   AI-Root  21: E(AI)=   28.247 eV -> LF-Root  21:    26.722 eV    S= 0.644 Delta=    1.526 eV
   AI-Root  22: E(AI)=   28.415 eV -> LF-Root  22:    26.686 eV    S= 0.612 Delta=    1.729 eV
   AI-Root  23: E(AI)=   29.549 eV -> LF-Root  23:    26.410 eV    S= 0.652 Delta=    3.139 eV
   AI-Root  24: E(AI)=   32.522 eV -> LF-Root  24:    32.835 eV    S= 0.810 Delta=   -0.313 eV
   AI-Root  25: E(AI)=   32.766 eV -> LF-Root  25:    33.144 eV    S= 0.815 Delta=   -0.378 eV
   AI-Root  26: E(AI)=   40.492 eV -> LF-Root  26:    42.470 eV    S= 0.561 Delta=   -1.978 eV
   AI-Root  27: E(AI)=   40.734 eV -> LF-Root  27:    42.556 eV    S= 0.724 Delta=   -1.822 eV
   AI-Root  28: E(AI)=   41.249 eV -> LF-Root  28:    42.282 eV    S= 0.529 Delta=   -1.033 eV
   AI-Root  29: E(AI)=   41.266 eV -> LF-Root  29:    42.282 eV    S= 0.734 Delta=   -1.016 eV
   AI-Root  30: E(AI)=   42.427 eV -> LF-Root  30:    44.328 eV    S= 0.751 Delta=   -1.902 eV
   AI-Root  31: E(AI)=   42.907 eV -> LF-Root  31:    44.514 eV    S= 0.875 Delta=   -1.608 eV
   AI-Root  32: E(AI)=   45.869 eV -> LF-Root  32:    42.438 eV    S= 0.717 Delta=    3.431 eV
   AI-Root  33: E(AI)=   46.094 eV -> LF-Root  33:    42.470 eV    S= 0.556 Delta=    3.625 eV
   AI-Root  34: E(AI)=   48.149 eV -> LF-Root  34:    47.839 eV    S= 0.717 Delta=    0.310 eV
   AI-Root  35: E(AI)=   48.359 eV -> LF-Root  35:    47.777 eV    S= 0.876 Delta=    0.582 eV
   AI-Root  36: E(AI)=   48.618 eV -> LF-Root  36:    47.957 eV    S= 0.789 Delta=    0.662 eV
   AI-Root  37: E(AI)=   49.327 eV -> LF-Root  37:    49.767 eV    S= 0.971 Delta=   -0.441 eV
   AI-Root  38: E(AI)=   65.702 eV -> LF-Root  38:    64.730 eV    S= 0.986 Delta=    0.972 eV
   AI-Root  39: E(AI)=   66.066 eV -> LF-Root  39:    65.095 eV    S= 0.987 Delta=    0.971 eV
   (Dropping RMS error for the reference energy)
   RMS error for this block =     1.682 eV =   13569.8 cm**-1 

Total RMS error g=     1.682 eV =   13569.8 cm**-1
Note: Dropped RMS error for the reference energy.

Confidence intervals (95%) computed from the square root of the
diagonal elements of the covariance matrix:
H(dxy   ,dxy   )=  0.007243505 a.u. =     0.197 eV =    1589.8 cm**-1
H(dyz   ,dxy   )=  0.007673551 a.u. =     0.209 eV =    1684.1 cm**-1
H(dyz   ,dyz   )=  0.007243505 a.u. =     0.197 eV =    1589.8 cm**-1
H(dz2   ,dxy   )=  0.007673551 a.u. =     0.209 eV =    1684.1 cm**-1
H(dz2   ,dyz   )=  0.007673551 a.u. =     0.209 eV =    1684.1 cm**-1
H(dz2   ,dz2   )=  0.007243505 a.u. =     0.197 eV =    1589.8 cm**-1
H(dxz   ,dxy   )=  0.007673551 a.u. =     0.209 eV =    1684.1 cm**-1
H(dxz   ,dyz   )=  0.007673551 a.u. =     0.209 eV =    1684.1 cm**-1
H(dxz   ,dz2   )=  0.007673551 a.u. =     0.209 eV =    1684.1 cm**-1
H(dxz   ,dxz   )=  0.007243505 a.u. =     0.197 eV =    1589.8 cm**-1
H(dx2-y2,dxy   )=  0.007673551 a.u. =     0.209 eV =    1684.1 cm**-1
H(dx2-y2,dyz   )=  0.007673551 a.u. =     0.209 eV =    1684.1 cm**-1
H(dx2-y2,dz2   )=  0.007673551 a.u. =     0.209 eV =    1684.1 cm**-1
H(dx2-y2,dxz   )=  0.007673551 a.u. =     0.209 eV =    1684.1 cm**-1
H(dx2-y2,dx2-y2)=  0.007243505 a.u. =     0.197 eV =    1589.8 cm**-1
F2dd            =  0.046083211 a.u. =     1.254 eV =   10114.1 cm**-1
F4dd            =  0.075354722 a.u. =     2.051 eV =   16538.4 cm**-1
Pearson's correlation coefficient =    0.998 (should be close to 1)

----------------------------------------------
SPIN ORBIT COUPLING (based on CASSCF orbitals)
----------------------------------------------

AI-SOC-X integrals (cm-1)
                   0          1          2          3          4    
      0      -0.000000 -12.371684  -6.395087  -1.558982   2.983084
      1      12.371684  -0.000000   3.846369  -1.269810  -3.137486
      2       6.395087  -3.846369  -0.000000  -1.746330  -0.296865
      3       1.558982   1.269810   1.746330  -0.000000  -1.239197
      4      -2.983084   3.137486   0.296865   1.239197   0.000000
AI-SOC-Y integrals (cm-1)
                   0          1          2          3          4    
      0      -0.000000   2.986674 -32.452161   8.028610   5.032735
      1      -2.986674  -0.000000  29.341039  -5.964147  -4.089222
      2      32.452161 -29.341039  -0.000000  -9.316159  -2.254529
      3      -8.028610   5.964147   9.316159  -0.000000  -1.091723
      4      -5.032735   4.089222   2.254529   1.091723  -0.000000
AI-SOC-Z integrals (cm-1)
                   0          1          2          3          4    
      0      -0.000000 -32.124286  32.995054 -15.291578   0.640058
      1      32.124286   0.000000  16.894735  -4.908087  -9.979968
      2     -32.995054 -16.894735  -0.000000  -1.924420  11.035610
      3      15.291578   4.908087   1.924420   0.000000  -6.107986
      4      -0.640058   9.979968 -11.035610   6.107986  -0.000000

Fit to the SOC matrix elements
a = 15.000000
b =     0.002 eV =      14.6 cm**-1
SOC constant zeta =     0.000 eV =       1.0 cm**-1

LF-SOC-X integrals (cm-1)
                   0          1          2          3          4    
      0       0.000000   0.000000   0.000000 -219474.631066   0.000000
      1      -0.000000   0.000000 -380141.211979   0.000000 -219474.631066
      2      -0.000000 380141.211979   0.000000  -0.000000  -0.000000
      3     219474.631066  -0.000000   0.000000   0.000000  -0.000000
      4      -0.000000 219474.631066   0.000000   0.000000   0.000000
LF-SOC-Y integrals (cm-1)
                   0          1          2          3          4    
      0       0.000000 219474.631066   0.000000   0.000000   0.000000
      1     -219474.631066   0.000000   0.000000   0.000000  -0.000000
      2      -0.000000  -0.000000   0.000000 -380141.211979  -0.000000
      3      -0.000000  -0.000000 380141.211979   0.000000 -219474.631066
      4      -0.000000   0.000000   0.000000 219474.631066   0.000000
LF-SOC-Z integrals (cm-1)
                   0          1          2          3          4    
      0       0.000000   0.000000   0.000000   0.000000 438949.262133
      1      -0.000000   0.000000   0.000000 219474.631066  -0.000000
      2      -0.000000  -0.000000   0.000000  -0.000000  -0.000000
      3      -0.000000 -219474.631066   0.000000   0.000000  -0.000000
      4     -438949.262133   0.000000   0.000000   0.000000   0.000000


--------------
CASSCF TIMINGS
--------------

Total time                       ...      296.8 sec
Sum of individual times          ...      587.9 sec (198.1%)

Calculation of AO operators
   F(Core) operator              ...      119.6 sec ( 40.3%)
   G(Act) operator               ...      110.3 sec ( 37.2%)
   J(AO) operators               ...        0.0 sec (  0.0%)
Calculation of MO transformed quantities
   J(MO) operators               ...       23.6 sec (  7.9%)
   (pq|rs) integrals             ...        0.0 sec (  0.0%)
   AO->MO one electron integrals ...        0.1 sec (  0.0%)
Configuration interaction steps
   CI-setup phase                ...        0.0 sec (  0.0%)
   CI-solution phase             ...        2.8 sec (  0.9%)
   Generation of densities       ...        0.3 sec (  0.1%)
Orbital improvement steps
   Orbital gradient              ...        0.1 sec (  0.0%)
   O(1) converger                ...        1.1 sec (  0.4%)
Properties                       ...      296.8 sec (100.0%)
   SOC integral calculation      ...       33.2 sec ( 11.2%)
   SSC RMEs (incl. integrals)    ...        0.0 sec (  0.0%)
   SOC RMEs                      ...        0.0 sec (  0.0%)

-------------------------   --------------------
FINAL SINGLE POINT ENERGY      -577.118504331826
-------------------------   --------------------


                            ***************************************
                            *     ORCA property calculations      *
                            ***************************************

                                    ---------------------
                                    Active property flags
                                    ---------------------
   (+) Dipole Moment


------------------------------------------------------------------------------
                       ORCA ELECTRIC PROPERTIES CALCULATION
------------------------------------------------------------------------------

Dipole Moment Calculation                       ... on
Quadrupole Moment Calculation                   ... off
Polarizability Calculation                      ... off
GBWName                                         ... Mo-TAEA-NH3_0_2_casscf-3-5-2_def2-tzvp_def2-svp.epr.gbw
Electron density file                           ... Mo-TAEA-NH3_0_2_casscf-3-5-2_def2-tzvp_def2-svp.epr.scfp
The origin for moment calculation is the CENTER OF MASS  = (13.875726, 30.034957 26.912410)

-------------
DIPOLE MOMENT
-------------
                                X             Y             Z
Electronic contribution:    -13.61678     -11.55760     -52.02531
Nuclear contribution   :     13.08235      11.34227      51.34275
                        -----------------------------------------
Total Dipole Moment    :     -0.53442      -0.21533      -0.68256
                        -----------------------------------------
Magnitude (a.u.)       :      0.89323
Magnitude (Debye)      :      2.27041



--------------------
Rotational spectrum 
--------------------
 
Rotational constants in cm-1:     0.029881     0.022964     0.022877 
Rotational constants in MHz :   895.812205   688.437631   685.832232 

 Dipole components along the rotational axes: 
x,y,z [a.u.] :    -0.821152    -0.070979     0.344286 
x,y,z [Debye]:    -2.087203    -0.180413     0.875104 

 

Timings for individual modules:

Sum of individual times         ...      309.561 sec (=   5.159 min)
GTO integral calculation        ...        4.086 sec (=   0.068 min)   1.3 %
SCF iterations                  ...        2.723 sec (=   0.045 min)   0.9 %
CASSCF iterations               ...      302.752 sec (=   5.046 min)  97.8 %
                             ****ORCA TERMINATED NORMALLY****
TOTAL RUN TIME: 0 days 0 hours 5 minutes 12 seconds 29 msec
