
                                 *****************
                                 * O   R   C   A *
                                 *****************

           --- An Ab Initio, DFT and Semiempirical electronic structure package ---

                  #######################################################
                  #                        -***-                        #
                  #          Department of theory and spectroscopy      #
                  #               Directorship: Frank Neese             #
                  #        Max Planck Institute fuer Kohlenforschung    #
                  #                Kaiser Wilhelm Platz 1               #
                  #                 D-45470 Muelheim/Ruhr               #
                  #                      Germany                        #
                  #                                                     #
                  #                  All rights reserved                #
                  #                        -***-                        #
                  #######################################################


                         Program Version 4.2.0 -  RELEASE  -


 With contributions from (in alphabetic order):
   Daniel Aravena         : Magnetic Suceptibility
   Michael Atanasov       : Ab Initio Ligand Field Theory (pilot matlab implementation)
   Alexander A. Auer      : GIAO ZORA, VPT2
   Ute Becker             : Parallelization
   Giovanni Bistoni       : ED, misc. LED, open-shell LED, HFLED
   Martin Brehm           : Molecular dynamics
   Dmytro Bykov           : SCF Hessian
   Vijay G. Chilkuri      : MRCI spin determinant printing, contributions to CSF-ICE
   Dipayan Datta          : RHF DLPNO-CCSD density
   Achintya Kumar Dutta   : EOM-CC, STEOM-CC
   Dmitry Ganyushin       : Spin-Orbit,Spin-Spin,Magnetic field MRCI
   Miquel Garcia          : C-PCM Hessian, Gaussian charge scheme
   Yang Guo               : DLPNO-NEVPT2, CIM, IAO-localization
   Andreas Hansen         : Spin unrestricted coupled pair/coupled cluster methods
   Benjamin Helmich-Paris : CASSCF linear response (MC-RPA)
   Lee Huntington         : MR-EOM, pCC
   Robert Izsak           : Overlap fitted RIJCOSX, COSX-SCS-MP3, EOM
   Christian Kollmar      : KDIIS, OOCD, Brueckner-CCSD(T), CCSD density
   Simone Kossmann        : Meta GGA functionals, TD-DFT gradient, OOMP2, MP2 Hessian
   Martin Krupicka        : AUTO-CI
   Lucas Lang             : DCDCAS
   Dagmar Lenk            : GEPOL surface, SMD
   Dimitrios Liakos       : Extrapolation schemes; Compound Job, initial MDCI parallelization
   Dimitrios Manganas     : Further ROCIS development; embedding schemes
   Dimitrios Pantazis     : SARC Basis sets
   Taras Petrenko         : DFT Hessian,TD-DFT gradient, ASA, ECA, R-Raman, ABS, FL, XAS/XES, NRVS
   Peter Pinski           : DLPNO-MP2, DLPNO-MP2 Gradient
   Christoph Reimann      : Effective Core Potentials
   Marius Retegan         : Local ZFS, SOC
   Christoph Riplinger    : Optimizer, TS searches, QM/MM, DLPNO-CCSD(T), (RO)-DLPNO pert. Triples
   Tobias Risthaus        : Range-separated hybrids, TD-DFT gradient, RPA, STAB
   Michael Roemelt        : Original ROCIS implementation
   Masaaki Saitow         : Open-shell DLPNO-CCSD energy and density
   Barbara Sandhoefer     : DKH picture change effects
   Avijit Sen             : IP-ROCIS
   Kantharuban Sivalingam : CASSCF convergence, NEVPT2, FIC-MRCI
   Bernardo de Souza      : ESD, SOC TD-DFT
   Georgi Stoychev        : AutoAux, RI-MP2 NMR
   Willem Van den Heuvel  : Paramagnetic NMR
   Boris Wezisla          : Elementary symmetry handling
   Frank Wennmohs         : Technical directorship


 We gratefully acknowledge several colleagues who have allowed us to
 interface, adapt or use parts of their codes:
   Stefan Grimme, W. Hujo, H. Kruse,             : VdW corrections, initial TS optimization,
                  C. Bannwarth                     DFT functionals, gCP, sTDA/sTD-DF
   Ed Valeev, F. Pavosevic, A. Kumar             : LibInt (2-el integral package), F12 methods
   Garnet Chan, S. Sharma, J. Yang, R. Olivares  : DMRG
   Ulf Ekstrom                                   : XCFun DFT Library
   Mihaly Kallay                                 : mrcc  (arbitrary order and MRCC methods)
   Andreas Klamt, Michael Diedenhofen            : otool_cosmo (COSMO solvation model)
   Jiri Pittner, Ondrej Demel                    : Mk-CCSD
   Frank Weinhold                                : gennbo (NPA and NBO analysis)
   Christopher J. Cramer and Donald G. Truhlar   : smd solvation model
   Lars Goerigk                                  : TD-DFT with DH, B97 family of functionals
   V. Asgeirsson, H. Jonsson                     : NEB implementation
   FAccTs GmbH                                   : IRC, NEB, NEB-TS, Multilevel, MM, QM/MM, CI optimization
   S Lehtola, MJT Oliveira, MAL Marques          : LibXC Library


 Your calculation uses the libint2 library for the computation of 2-el integrals
 For citations please refer to: http://libint.valeyev.net

 Your ORCA version has been built with support for libXC version: 4.2.3
 For citations please refer to: https://tddft.org/programs/libxc/

 This ORCA versions uses:
   CBLAS   interface :  Fast vector & matrix operations
   LAPACKE interface :  Fast linear algebra routines
   SCALAPACK package :  Parallel linear algebra routines


----- Orbital basis set information -----
Your calculation utilizes the basis: def2-SVP
   F. Weigend and R. Ahlrichs, Phys. Chem. Chem. Phys. 7, 3297 (2005).

----- AuxJ basis set information -----
Your calculation utilizes the auxiliary basis: def2/J
   F. Weigend, Phys. Chem. Chem. Phys. 8, 1057 (2006).

================================================================================
                                        WARNINGS
                       Please study these warnings very carefully!
================================================================================


INFO   : the flag for use of LIBINT has been found!

================================================================================
                                       INPUT FILE
================================================================================
NAME = Mo-TAEA-NH3_0_2_bp86_lanl2dz_6-31gpol.opt_atom42.inp
|  1> # input to generate an atomic fitting density for Mo
|  2> # this file is use internally by ORCA
|  3> #
|  4> # atomic ground state (S=5): 1s2 2s2 2p6 3s2 3p6 4s2 3d10 4p6 5s2 4d4 
|  5> #
|  6> ! RHF AllowRHF def2-SVP def2/J  NoMulliken NoLoewdin NoMayer NoPrintMOs 
|  7> 
|  8> %output print[p_atomdensfit] 2 end
|  9> 
| 10> %scf
| 11>   guess hcore
| 12>   maxiter 1000
| 13>   maxdisk 500000
| 14>   SCFMode Conventional
| 15>   lshift 0.600000
| 16>   hftyp rohf
| 17>   rohf_case sahf
| 18>   rohf_numop   2
| 19>   rohf_norb[1] 5
| 20>   rohf_nel[1]  4
| 21> end
| 22> 
| 23> %basis
| 24>   NewECP 42
| 25>     N_core 28
| 26>     lmax f
| 27>     s 3
| 28>       1     110.2991760000      2.8063717000  0
| 29>       2      23.2014645000     44.5162012000  1
| 30>       3       5.3530131000     82.7785227000  2
| 31>     p 4
| 32>       1      63.2901397000      4.9420876000  0
| 33>       2      23.3315302000     25.8604976000  1
| 34>       3      24.6759423000    132.4708742000  2
| 35>       4       4.6493040000     57.3149794000  2
| 36>     d 5
| 37>       1     104.4839977000      3.0054591000  0
| 38>       2      66.2307245000     26.3637851000  1
| 39>       3      39.1283176000    183.3849199000  2
| 40>       4      13.1164437000     98.4453068000  2
| 41>       5       3.6280263000     22.4901377000  2
| 42>     f 5
| 43>       1     537.9667807000     -0.0469492000  0
| 44>       2     147.8982938000    -20.2080084000  1
| 45>       3      45.7358898000   -106.2116302000  2
| 46>       4      13.2911467000    -41.8107368000  2
| 47>       5       4.7059961000     -4.2054103000  2
| 48>   end
| 49>   NewGTO 42
| 50>     s 3 
| 51>      1       2.3610000000     -0.9121759787
| 52>      2       1.3090000000      1.1477452732
| 53>      3       0.4500000000      0.6097108857
| 54>     s 4 
| 55>      1       2.3610000000      0.8139258415
| 56>      2       1.3090000000     -1.1360083184
| 57>      3       0.4500000000     -1.1611591166
| 58>      4       0.1681000000      1.0064785277
| 59>     s 1 
| 60>      1       0.0423000000      1.0000000000
| 61>     p 3 
| 62>      1       4.8950000000     -0.0908257996
| 63>      2       1.0440000000      0.7042898967
| 64>      3       0.3877000000      0.3973178981
| 65>     p 2 
| 66>      1       0.4995000000     -0.1081944993
| 67>      2       0.0780000000      1.0368092928
| 68>     p 1 
| 69>      1       0.0247000000      1.0000000000
| 70>     d 3 
| 71>      1       2.9930000000      0.0527063001
| 72>      2       1.0630000000      0.5003907009
| 73>      3       0.3721000000      0.5794024010
| 74>     d 1 
| 75>      1       0.1178000000      1.0000000000
| 76>   end
| 77>   NewAuxGTO 42
| 78>     S 1
| 79>      1 1310.72 1.0
| 80>     S 1
| 81>      1  655.36 1.0
| 82>     S 1
| 83>      1  327.68 1.0
| 84>     S 1
| 85>      1  163.84 1.0
| 86>     S 1
| 87>      1   81.82 1.0
| 88>     S 1
| 89>      1   40.96 1.0
| 90>     S 1
| 91>      1   20.48 1.0
| 92>     S 1
| 93>      1   10.24 1.0
| 94>     S 1
| 95>      1    5.12 1.0
| 96>     S 1
| 97>      1    2.56 1.0
| 98>     S 1
| 99>      1    1.28 1.0
|100>     S 1
|101>      1    0.64 1.0
|102>     S 1
|103>      1    0.32 1.0
|104>     S 1
|105>      1    0.16 1.0
|106>     S 1
|107>      1    0.08 1.0
|108>     S 1
|109>      1    0.04 1.0
|110>     S 1
|111>      1    0.02 1.0
|112>     S 1
|113>      1    0.01 1.0
|114>   end
|115> end
|116> 
|117> * xyz 0 5
|118> 42  0.0 0.0 0.0
|119> *
|120> 
|121> 
|122>                          ****END OF INPUT****
================================================================================

                       ****************************
                       * Single Point Calculation *
                       ****************************

---------------------------------
CARTESIAN COORDINATES (ANGSTROEM)
---------------------------------
  Mo     0.000000    0.000000    0.000000

----------------------------
CARTESIAN COORDINATES (A.U.)
----------------------------
  NO LB      ZA    FRAG     MASS         X           Y           Z
   0 Mo   14.0000*   0    95.940    0.000000    0.000000    0.000000
* core charge reduced due to ECP

--------------------------------
INTERNAL COORDINATES (ANGSTROEM)
--------------------------------
 Mo     0   0   0     0.000000000000     0.00000000     0.00000000

---------------------------
INTERNAL COORDINATES (A.U.)
---------------------------
 Mo     0   0   0     0.000000000000     0.00000000     0.00000000

---------------------
BASIS SET INFORMATION
---------------------
There are 1 groups of distinct atoms

 Group   1 Type Mo  : 8s6p4d contracted to 3s3p2d pattern {341/321/31}

Atom   0Mo   basis set group =>   1
---------------------------------
AUXILIARY/J BASIS SET INFORMATION
---------------------------------
There are 1 groups of distinct atoms

 Group   1 Type Mo  : 18s contracted to 18s pattern {111111111111111111}

Atom   0Mo   basis set group =>   1
-------------------------
ECP PARAMETER INFORMATION
-------------------------

 Group 1, Type Mo ECP (replacing 28 core electrons, lmax=3)

Atom   0Mo   ECP group =>   1

------------------------------------------------------------------------------
                           ORCA GTO INTEGRAL CALCULATION
------------------------------------------------------------------------------

                         BASIS SET STATISTICS AND STARTUP INFO

 # of primitive gaussian shells          ...   18
 # of primitive gaussian functions       ...   46
 # of contracted shells                  ...    8
 # of contracted basis functions         ...   22
 Highest angular momentum                ...    2
 Maximum contraction depth               ...    4
 Integral package used                   ... LIBINT
 Integral threshhold            Thresh   ...  1.000e-10
 Primitive cut-off              TCut     ...  1.000e-11
 Storage cut-off                TCutStore... -1.000e+00
 Buffer length                           ... 1048576 integrals/buffer
 Generate file with integrals 4 distinct ...false


------------------------------ INTEGRAL EVALUATION ----------------------------


 * One electron integrals 

   ECP integrals                         ... done
 Pre-screening matrix                    ... done
 Shell pair data                         ... done (   0.000 sec)
 Statistics run                          ... done
 Maximum amount of storage needed        ...     0 MB
 Maximum amount of storage dedicated     ... 500000 MB
 Beginning two electron integral evaluation:
 Starting repulsion integrals
  <ss|ss>  ...           21 b.         0 skpd (  0.0%)     0.000 s. (  0.002 ms/b)
  <ss|sp>  ...           54 b.         0 skpd (  0.0%)     0.000 s. (  0.002 ms/b)
  <ss|sd>  ...           36 b.         0 skpd (  0.0%)     0.000 s. (  0.005 ms/b)
  <ss|pp>  ...           36 b.         0 skpd (  0.0%)     0.000 s. (  0.003 ms/b)
  <ss|pd>  ...           36 b.         0 skpd (  0.0%)     0.000 s. (  0.005 ms/b)
  <ss|dd>  ...           18 b.         0 skpd (  0.0%)     0.000 s. (  0.009 ms/b)
  <sp|sp>  ...           45 b.         0 skpd (  0.0%)     0.000 s. (  0.003 ms/b)
  <sp|sd>  ...           54 b.         0 skpd (  0.0%)     0.000 s. (  0.005 ms/b)
  <sp|pp>  ...           54 b.         0 skpd (  0.0%)     0.000 s. (  0.005 ms/b)
  <sp|pd>  ...           54 b.         0 skpd (  0.0%)     0.000 s. (  0.008 ms/b)
  <sp|dd>  ...           27 b.         0 skpd (  0.0%)     0.000 s. (  0.014 ms/b)
  <sd|sd>  ...           21 b.         0 skpd (  0.0%)     0.000 s. (  0.010 ms/b)
  <sd|pp>  ...           36 b.         0 skpd (  0.0%)     0.000 s. (  0.009 ms/b)
  <sd|pd>  ...           36 b.         0 skpd (  0.0%)     0.001 s. (  0.017 ms/b)
  <sd|dd>  ...           18 b.         0 skpd (  0.0%)     0.001 s. (  0.034 ms/b)
  <pp|pp>  ...           21 b.         0 skpd (  0.0%)     0.000 s. (  0.009 ms/b)
  <pp|pd>  ...           36 b.         0 skpd (  0.0%)     0.001 s. (  0.015 ms/b)
  <pp|dd>  ...           18 b.         0 skpd (  0.0%)     0.001 s. (  0.031 ms/b)
  <pd|pd>  ...           21 b.         0 skpd (  0.0%)     0.001 s. (  0.034 ms/b)
  <pd|dd>  ...           18 b.         0 skpd (  0.0%)     0.001 s. (  0.064 ms/b)
  <dd|dd>  ...            6 b.         0 skpd (  0.0%)     0.001 s. (  0.158 ms/b)


                                      INTEGRAL STATISTICS

Integral type statistics:
 Number of integrals retained            ...      32131 
 One   Center Integrals retained         ...      32131 (100.0%)
 Two   Center Integrals retained         ...          0 (  0.0%)
 Three Center Integrals retained         ...          0 (  0.0%)
 Four  Center Integrals retained         ...          0 (  0.0%)

Storage statistics:
 Number of char integrals                ...          0 (  0.0%)
 Number of short int integrals           ...          0 (  0.0%)
 Number of double/float integrals        ...      32131 (100.0%)
 Amount of memory used                   ...          0 MB
 Amount of memory estimated              ...          0 MB ( 92.1%)

Prescreening statistics:
 Total number of shell quadruples        ...        666 
 Number of skipped shell quadruples      ...          0 (  0.0%)
 # of negligible batches done            ...          0 (  0.0%)

Timings:
 Total evaluation time               ...     0.205 sec (   0.003 min)
 One electron matrix time            ...     0.033 sec (   0.001 min) = 15.9%
 Schwartz matrix evaluation time     ...     0.079 sec (   0.001 min) = 38.5%
 Statistics run                      ...     0.000 sec (   0.000 min) =  0.2%
 Repulsion integral time             ...     0.008 sec (   0.000 min) =  4.1%

-------------------------------------------------------------------------------
                                 ORCA SCF
-------------------------------------------------------------------------------

------------
SCF SETTINGS
------------
Hamiltonian:
 Ab initio Hamiltonian  Method          .... Hartree-Fock(GTOs)


General Settings:
 Integral files         IntName         .... Mo-TAEA-NH3_0_2_bp86_lanl2dz_6-31gpol.opt_atom42
 Hartree-Fock type      HFTyp           .... ROHF
 Total Charge           Charge          ....    0
 Multiplicity           Mult            ....    5
 Number of Electrons    NEL             ....   14
 Basis Dimension        Dim             ....   22
 Nuclear Repulsion      ENuc            ....      0.0000000000 Eh

Convergence Acceleration:
 DIIS                   CNVDIIS         .... on
   Start iteration      DIISMaxIt       ....    12
   Startup error        DIISStart       ....  0.200000
   # of expansion vecs  DIISMaxEq       ....     5
   Bias factor          DIISBfac        ....   1.050
   Max. coefficient     DIISMaxC        ....  10.000
 Newton-Raphson         CNVNR           .... off
 SOSCF                  CNVSOSCF        .... off
 Level Shifting         CNVShift        .... on
   Level shift para.    LevelShift      ....    0.6000
   Turn off err/grad.   ShiftErr        ....    0.0010
 Zerner damping         CNVZerner       .... off
 Static damping         CNVDamp         .... on
   Fraction old density DampFac         ....    0.7000
   Max. Damping (<1)    DampMax         ....    0.9800
   Min. Damping (>=0)   DampMin         ....    0.0000
   Turn off err/grad.   DampErr         ....    0.1000
 Fernandez-Rico         CNVRico         .... off

SCF Procedure:
 Maximum # iterations   MaxIter         ....  1000
 SCF integral mode      SCFMode         .... Conventional
 Integral Threshold     Thresh          ....  1.000e-10 Eh
 Primitive CutOff       TCut            ....  1.000e-11 Eh
 Integral Buffer length BufferLength    .... 1048576
 Integral index format  IndFormat       ....     0
 Integral value format  ValFormat       ....     0
 Integral Storage       Thresh          ....  1.000e-10 Eh

Convergence Tolerance:
 Convergence Check Mode ConvCheckMode   .... Total+1el-Energy
 Convergence forced     ConvForced      .... 0
 Energy Change          TolE            ....  1.000e-06 Eh
 1-El. energy change                    ....  1.000e-03 Eh
 DIIS Error             TolErr          ....  1.000e-06


Diagonalization of the overlap matrix:
Smallest eigenvalue                        ... 6.988e-02
Time for diagonalization                   ...    0.057 sec
Threshold for overlap eigenvalues          ... 1.000e-08
Number of eigenvalues below threshold      ... 0
Time for construction of square roots      ...    0.045 sec
Total time needed                          ...    0.103 sec

--------------------
INITIAL GUESS: HCORE
--------------------
AVERAGE-CONFIGURATION (SAHF) CASE FOUND

-------------------
FINAL ROHF SETTINGS
-------------------
Number of operators             ... 2
  operator   0:   5 orbitals  10 electrons n(mue)= 2.000
  operator   1:   5 orbitals   4 electrons n(mue)= 0.800
Vector coupling coefficients a and b (Zerner convention):
   1.000    1.000           1.000    1.000 
   1.000    0.938           1.000    1.875 

                      -----------------
                      INTIAL GUESS DONE 
                      -----------------

 InCore treatment chosen:
   Memory dedicated               ...    1024 MB
   Memory needed                  ...      0 MB
   Number of tiny    integrals    ...       0
   Number of small   integrals    ...       0
   Number of regular integrals    ...   32131

--------------
SCF ITERATIONS
--------------
ITER       Energy         Delta-E        Max-DP      RMS-DP      [F,P]     Damp
  0    -65.4224871278   0.000000000000 0.35190709  0.02021524  0.4154086 0.7000
  1    -65.9535964909  -0.531109363187 0.37487045  0.02113722  0.2679203 0.7000
                            ****Activating DIIS****
  2    -66.2346663376  -0.281069846691 0.37325088  0.02071454  0.1787200 0.7000
  3    -66.4546681909  -0.220001853220 0.96203934  0.05341608  0.0636107 0.0000
  4    -66.7536249211  -0.298956730227 0.03910247  0.00328770  0.0289168 0.0000
  5    -66.7531533536   0.000471567530 0.04986533  0.00351037  0.0309052 0.0000
  6    -66.7576888673  -0.004535513729 0.01073462  0.00072930  0.0077295 0.0000
  7    -66.7579184776  -0.000229610310 0.00268495  0.00020987  0.0028651 0.0000
  8    -66.7579613963  -0.000042918663 0.00252272  0.00018968  0.0022631 0.0000
  9    -66.7579983314  -0.000036935191 0.00184048  0.00010559  0.0022537 0.0000
 10    -66.7580221050  -0.000023773593 0.00105871  0.00006003  0.0022542 0.0000
 11    -66.7580358463  -0.000013741210 0.00053356  0.00003026  0.0022537 0.0000
 12    -66.7580427927  -0.000006946428 0.00006662  0.00000413  0.0022539 0.0000
                 **** Energy Check signals convergence ****

               *****************************************************
               *                     SUCCESS                       *
               *           SCF CONVERGED AFTER  13 CYCLES          *
               *****************************************************


----------------
TOTAL SCF ENERGY
----------------

Total Energy       :          -66.75804365 Eh           -1816.57872 eV

Components:
Nuclear Repulsion  :            0.00000000 Eh               0.00000 eV
Electronic Energy  :          -66.75804365 Eh           -1816.57872 eV
One Electron Energy:         -115.93248643 Eh           -3154.68334 eV
Two Electron Energy:           49.17444278 Eh            1338.10462 eV

Virial components:
Potential Energy   :          -89.57604316 Eh           -2437.48805 eV
Kinetic Energy     :           22.81799951 Eh             620.90933 eV
Virial Ratio       :            3.92567469


---------------
SCF CONVERGENCE
---------------

  Last Energy change         ...   -8.5674e-07  Tolerance :   1.0000e-06
  Last MAX-Density change    ...    8.9222e-04  Tolerance :   1.0000e-05
  Last RMS-Density change    ...    5.1931e-05  Tolerance :   1.0000e-06
  Last DIIS Error            ...    2.2539e-03  Tolerance :   1.0000e-06

             **** THE GBW FILE WAS UPDATED (Mo-TAEA-NH3_0_2_bp86_lanl2dz_6-31gpol.opt_atom42.gbw) ****
             **** DENSITY FILE WAS UPDATED (Mo-TAEA-NH3_0_2_bp86_lanl2dz_6-31gpol.opt_atom42.scfp) ****
             **** ENERGY FILE WAS UPDATED (Mo-TAEA-NH3_0_2_bp86_lanl2dz_6-31gpol.opt_atom42.en.tmp) ****
             **** THE GBW FILE WAS UPDATED (Mo-TAEA-NH3_0_2_bp86_lanl2dz_6-31gpol.opt_atom42.gbw) ****
             **** DENSITY FILE WAS UPDATED (Mo-TAEA-NH3_0_2_bp86_lanl2dz_6-31gpol.opt_atom42.scfp) ****
----------------
ORBITAL ENERGIES
----------------

  NO   OCC          E(Eh)            E(eV) 
   0   2.0000      -2.831637       -77.0528 
   1   2.0000      -1.711559       -46.5739 
   2   2.0000      -1.709425       -46.5158 
   3   2.0000      -1.699957       -46.2582 
   4   2.0000      -0.241935        -6.5834 
   5   0.8000      -0.327588        -8.9141 
   6   0.8000      -0.327331        -8.9071 
   7   0.8000      -0.304765        -8.2931 
   8   0.8000      -0.300029        -8.1642 
   9   0.8000      -0.232409        -6.3242 
  10   0.0000      -0.008315        -0.2263 
  11   0.0000      -0.007078        -0.1926 
  12   0.0000      -0.001836        -0.0500 
  13   0.0000       0.112550         3.0627 
  14   0.0000       0.115065         3.1311 
  15   0.0000       0.126171         3.4333 
  16   0.0000       0.371432        10.1072 
  17   0.0000       0.371504        10.1091 
  18   0.0000       0.388999        10.5852 
  19   0.0000       0.382688        10.4135 
  20   0.0000       0.385212        10.4821 
  21   0.0000       2.303610        62.6844 
CleanUpVectors: The p-vectors have cracked symmetry
CleanUpVectors: The p-vectors have cracked symmetry
CleanUpVectors: The p-vectors have cracked symmetry
CleanUpVectors: The d-vectors have cracked symmetry at i=4
CleanUpVectors: The d-vectors have cracked symmetry at i=6
CleanUpVectors: The d-vectors have cracked symmetry at i=7
CleanUpVectors: The d-vectors have cracked symmetry at i=8
CleanUpVectors: The d-vectors have cracked symmetry at i=9
CleanUpVectors: The p-vectors have cracked symmetry
CleanUpVectors: The p-vectors have cracked symmetry
CleanUpVectors: The p-vectors have cracked symmetry
CleanUpVectors: The p-vectors have cracked symmetry
CleanUpVectors: The p-vectors have cracked symmetry
CleanUpVectors: The p-vectors have cracked symmetry
CleanUpVectors: The d-vectors have cracked symmetry at i=16
CleanUpVectors: The d-vectors have cracked symmetry at i=17
--------------------------
ATOM BASIS FOR ELEMENT Mo
--------------------------
 NewGTO Mo
 S 8
    1          2.361000000000         0.912505724663
    2          1.309000000000        -1.148160176003
    3          0.450000000000        -0.609931292407
    4          2.361000000000        -0.002170820302
    5          1.309000000000         0.003029845958
    6          0.450000000000         0.003096925611
    7          0.168100000000        -0.002684377262
    8          0.042300000000        -0.004729896277
 P 18
    1          4.895000000000        -0.021732957779
    2          1.044000000000         0.168523730667
    3          0.387700000000         0.095070928551
    4          4.895000000000        -0.087837120722
    5          1.044000000000         0.681114803857
    6          0.387700000000         0.384243907944
    7          4.895000000000         0.001722813736
    8          1.044000000000        -0.013359203149
    9          0.387700000000        -0.007536456991
   10          0.499500000000        -0.000432734581
   11          0.078000000000         0.004146821121
   12          0.499500000000        -0.001748963947
   13          0.078000000000         0.016760020936
   14          0.499500000000         0.000034303710
   15          0.078000000000        -0.000328726557
   16          0.024700000000        -0.000768556795
   17          0.024700000000        -0.003106241529
   18          0.024700000000         0.000060924989
 P 18
    1          4.895000000000        -0.087744483436
    2          1.044000000000         0.680396467160
    3          0.387700000000         0.383838665688
    4          4.895000000000         0.021721871621
    5          1.044000000000        -0.168437765344
    6          0.387700000000        -0.095022432099
    7          4.895000000000         0.000603376910
    8          1.044000000000        -0.004678761583
    9          0.387700000000        -0.002639475203
   10          0.499500000000        -0.002340610826
   11          0.078000000000         0.022429671298
   12          0.499500000000         0.000579437543
   13          0.078000000000        -0.005552650393
   14          0.499500000000         0.000016095263
   15          0.078000000000        -0.000154238138
   16          0.024700000000        -0.004821506973
   17          0.024700000000         0.001193603876
   18          0.024700000000         0.000033155201
 D 18
    1          2.993000000000         0.000206566350
    2          1.063000000000         0.001961129514
    3          0.372100000000         0.002270791897
    4          2.993000000000         0.000664098309
    5          1.063000000000         0.006304912650
    6          0.372100000000         0.007300458464
    7          2.993000000000         0.010778595497
    8          1.063000000000         0.102331390086
    9          0.372100000000         0.118489518304
   10          2.993000000000         0.001591118108
   11          1.063000000000         0.015105987397
   12          0.372100000000         0.017491223062
   13          2.993000000000         0.043587141749
   14          1.063000000000         0.413813915384
   15          0.372100000000         0.479155139592
   16          0.117800000000         0.001267025790
   17          0.117800000000         0.004073411202
   18          0.117800000000         0.066113180914
 P 18
    1          4.895000000000        -0.008703564564
    2          1.044000000000         0.067489993094
    3          0.387700000000         0.038073785134
    4          4.895000000000         0.002154639297
    5          1.044000000000        -0.016707705240
    6          0.387700000000        -0.009425479990
    7          4.895000000000         0.000059850257
    8          1.044000000000        -0.000464096453
    9          0.387700000000        -0.000261815238
   10          0.499500000000        -0.004534566030
   11          0.078000000000         0.043453966972
   12          0.499500000000         0.001122569275
   13          0.078000000000        -0.010757388442
   14          0.499500000000         0.000031182045
   15          0.078000000000        -0.000298812180
   16          0.024700000000        -1.002838666490
   17          0.024700000000         0.248260995078
   18          0.024700000000         0.006896042607
 P 18
    1          4.895000000000        -0.021818707784
    2          1.044000000000         0.169188661362
    3          0.387700000000         0.095446042361
    4          4.895000000000         0.005401401329
    5          1.044000000000        -0.041884050575
    6          0.387700000000        -0.023628456146
    7          4.895000000000         0.000150036834
    8          1.044000000000        -0.001163429629
    9          0.387700000000        -0.000656336853
   10          0.499500000000         0.148276704520
   11          0.078000000000        -1.420910177014
   12          0.499500000000        -0.036707122931
   13          0.078000000000         0.351758050671
   14          0.499500000000        -0.001019628088
   15          0.078000000000         0.009770920735
   16          0.024700000000         0.891610068479
   17          0.024700000000        -0.220725436921
   18          0.024700000000        -0.006131176655
 D 18
    1          2.361000000000        -0.000394356823
    2          1.309000000000         0.000894978457
    3          0.450000000000         0.001382987168
    4          2.361000000000        -0.000579106298
    5          1.309000000000         0.001457844837
    6          0.450000000000         0.004334596348
    7          0.168100000000        -0.010057875114
    8          0.042300000000        -0.094327177966
    9          2.993000000000         0.035410913983
   10          1.063000000000         0.336189260746
   11          0.372100000000         0.389273550680
   12          2.993000000000        -0.014481265437
   13          1.063000000000        -0.137484333905
   14          0.372100000000        -0.159193112544
   15          2.993000000000        -0.000504739471
   16          1.063000000000        -0.004791968650
   17          0.372100000000        -0.005548620581
   18          2.993000000000         0.006427118923
 end
  // -----------------------------------------------
  // The basis set
  // -----------------------------------------------
  BAS[ATNO] = new BFNGauss[NSH];
  // Basis function   1 L = s
  InitBFNGauss(BAS[ATNO][  0]);
  BAS[ATNO][  0].l  = 0;
  BAS[ATNO][  0].ng = 8;
  BAS[ATNO][  0].a[  0] =         2.361000000000;     BAS[ATNO][  0].d[  0] =        -0.912505724663;
  BAS[ATNO][  0].a[  1] =         1.309000000000;     BAS[ATNO][  0].d[  1] =         1.148160176003;
  BAS[ATNO][  0].a[  2] =         0.450000000000;     BAS[ATNO][  0].d[  2] =         0.609931292407;
  BAS[ATNO][  0].a[  3] =         2.361000000000;     BAS[ATNO][  0].d[  3] =         0.002170820302;
  BAS[ATNO][  0].a[  4] =         1.309000000000;     BAS[ATNO][  0].d[  4] =        -0.003029845958;
  BAS[ATNO][  0].a[  5] =         0.450000000000;     BAS[ATNO][  0].d[  5] =        -0.003096925611;
  BAS[ATNO][  0].a[  6] =         0.168100000000;     BAS[ATNO][  0].d[  6] =         0.002684377262;
  BAS[ATNO][  0].a[  7] =         0.042300000000;     BAS[ATNO][  0].d[  7] =         0.004729896277;

  // Basis function   2 L = p
  InitBFNGauss(BAS[ATNO][  1]);
  BAS[ATNO][  1].l  = 1;
  BAS[ATNO][  1].ng = 18;
  BAS[ATNO][  1].a[  0] =         4.895000000000;     BAS[ATNO][  1].d[  0] =        -0.021732957779;
  BAS[ATNO][  1].a[  1] =         1.044000000000;     BAS[ATNO][  1].d[  1] =         0.168523730667;
  BAS[ATNO][  1].a[  2] =         0.387700000000;     BAS[ATNO][  1].d[  2] =         0.095070928551;
  BAS[ATNO][  1].a[  3] =         4.895000000000;     BAS[ATNO][  1].d[  3] =        -0.087837120722;
  BAS[ATNO][  1].a[  4] =         1.044000000000;     BAS[ATNO][  1].d[  4] =         0.681114803857;
  BAS[ATNO][  1].a[  5] =         0.387700000000;     BAS[ATNO][  1].d[  5] =         0.384243907944;
  BAS[ATNO][  1].a[  6] =         4.895000000000;     BAS[ATNO][  1].d[  6] =         0.001722813736;
  BAS[ATNO][  1].a[  7] =         1.044000000000;     BAS[ATNO][  1].d[  7] =        -0.013359203149;
  BAS[ATNO][  1].a[  8] =         0.387700000000;     BAS[ATNO][  1].d[  8] =        -0.007536456991;
  BAS[ATNO][  1].a[  9] =         0.499500000000;     BAS[ATNO][  1].d[  9] =        -0.000432734581;
  BAS[ATNO][  1].a[ 10] =         0.078000000000;     BAS[ATNO][  1].d[ 10] =         0.004146821121;
  BAS[ATNO][  1].a[ 11] =         0.499500000000;     BAS[ATNO][  1].d[ 11] =        -0.001748963947;
  BAS[ATNO][  1].a[ 12] =         0.078000000000;     BAS[ATNO][  1].d[ 12] =         0.016760020936;
  BAS[ATNO][  1].a[ 13] =         0.499500000000;     BAS[ATNO][  1].d[ 13] =         0.000034303710;
  BAS[ATNO][  1].a[ 14] =         0.078000000000;     BAS[ATNO][  1].d[ 14] =        -0.000328726557;
  BAS[ATNO][  1].a[ 15] =         0.024700000000;     BAS[ATNO][  1].d[ 15] =        -0.000768556795;
  BAS[ATNO][  1].a[ 16] =         0.024700000000;     BAS[ATNO][  1].d[ 16] =        -0.003106241529;
  BAS[ATNO][  1].a[ 17] =         0.024700000000;     BAS[ATNO][  1].d[ 17] =         0.000060924989;

  // Basis function   3 L = p
  InitBFNGauss(BAS[ATNO][  2]);
  BAS[ATNO][  2].l  = 1;
  BAS[ATNO][  2].ng = 18;
  BAS[ATNO][  2].a[  0] =         4.895000000000;     BAS[ATNO][  2].d[  0] =        -0.087744483436;
  BAS[ATNO][  2].a[  1] =         1.044000000000;     BAS[ATNO][  2].d[  1] =         0.680396467160;
  BAS[ATNO][  2].a[  2] =         0.387700000000;     BAS[ATNO][  2].d[  2] =         0.383838665688;
  BAS[ATNO][  2].a[  3] =         4.895000000000;     BAS[ATNO][  2].d[  3] =         0.021721871621;
  BAS[ATNO][  2].a[  4] =         1.044000000000;     BAS[ATNO][  2].d[  4] =        -0.168437765344;
  BAS[ATNO][  2].a[  5] =         0.387700000000;     BAS[ATNO][  2].d[  5] =        -0.095022432099;
  BAS[ATNO][  2].a[  6] =         4.895000000000;     BAS[ATNO][  2].d[  6] =         0.000603376910;
  BAS[ATNO][  2].a[  7] =         1.044000000000;     BAS[ATNO][  2].d[  7] =        -0.004678761583;
  BAS[ATNO][  2].a[  8] =         0.387700000000;     BAS[ATNO][  2].d[  8] =        -0.002639475203;
  BAS[ATNO][  2].a[  9] =         0.499500000000;     BAS[ATNO][  2].d[  9] =        -0.002340610826;
  BAS[ATNO][  2].a[ 10] =         0.078000000000;     BAS[ATNO][  2].d[ 10] =         0.022429671298;
  BAS[ATNO][  2].a[ 11] =         0.499500000000;     BAS[ATNO][  2].d[ 11] =         0.000579437543;
  BAS[ATNO][  2].a[ 12] =         0.078000000000;     BAS[ATNO][  2].d[ 12] =        -0.005552650393;
  BAS[ATNO][  2].a[ 13] =         0.499500000000;     BAS[ATNO][  2].d[ 13] =         0.000016095263;
  BAS[ATNO][  2].a[ 14] =         0.078000000000;     BAS[ATNO][  2].d[ 14] =        -0.000154238138;
  BAS[ATNO][  2].a[ 15] =         0.024700000000;     BAS[ATNO][  2].d[ 15] =        -0.004821506973;
  BAS[ATNO][  2].a[ 16] =         0.024700000000;     BAS[ATNO][  2].d[ 16] =         0.001193603876;
  BAS[ATNO][  2].a[ 17] =         0.024700000000;     BAS[ATNO][  2].d[ 17] =         0.000033155201;

  // Basis function   4 L = d
  InitBFNGauss(BAS[ATNO][  3]);
  BAS[ATNO][  3].l  = 2;
  BAS[ATNO][  3].ng = 18;
  BAS[ATNO][  3].a[  0] =         2.993000000000;     BAS[ATNO][  3].d[  0] =         0.000206566350;
  BAS[ATNO][  3].a[  1] =         1.063000000000;     BAS[ATNO][  3].d[  1] =         0.001961129514;
  BAS[ATNO][  3].a[  2] =         0.372100000000;     BAS[ATNO][  3].d[  2] =         0.002270791897;
  BAS[ATNO][  3].a[  3] =         2.993000000000;     BAS[ATNO][  3].d[  3] =         0.000664098309;
  BAS[ATNO][  3].a[  4] =         1.063000000000;     BAS[ATNO][  3].d[  4] =         0.006304912650;
  BAS[ATNO][  3].a[  5] =         0.372100000000;     BAS[ATNO][  3].d[  5] =         0.007300458464;
  BAS[ATNO][  3].a[  6] =         2.993000000000;     BAS[ATNO][  3].d[  6] =         0.010778595497;
  BAS[ATNO][  3].a[  7] =         1.063000000000;     BAS[ATNO][  3].d[  7] =         0.102331390086;
  BAS[ATNO][  3].a[  8] =         0.372100000000;     BAS[ATNO][  3].d[  8] =         0.118489518304;
  BAS[ATNO][  3].a[  9] =         2.993000000000;     BAS[ATNO][  3].d[  9] =         0.001591118108;
  BAS[ATNO][  3].a[ 10] =         1.063000000000;     BAS[ATNO][  3].d[ 10] =         0.015105987397;
  BAS[ATNO][  3].a[ 11] =         0.372100000000;     BAS[ATNO][  3].d[ 11] =         0.017491223062;
  BAS[ATNO][  3].a[ 12] =         2.993000000000;     BAS[ATNO][  3].d[ 12] =         0.043587141749;
  BAS[ATNO][  3].a[ 13] =         1.063000000000;     BAS[ATNO][  3].d[ 13] =         0.413813915384;
  BAS[ATNO][  3].a[ 14] =         0.372100000000;     BAS[ATNO][  3].d[ 14] =         0.479155139592;
  BAS[ATNO][  3].a[ 15] =         0.117800000000;     BAS[ATNO][  3].d[ 15] =         0.001267025790;
  BAS[ATNO][  3].a[ 16] =         0.117800000000;     BAS[ATNO][  3].d[ 16] =         0.004073411202;
  BAS[ATNO][  3].a[ 17] =         0.117800000000;     BAS[ATNO][  3].d[ 17] =         0.066113180914;

  // Basis function   5 L = p
  InitBFNGauss(BAS[ATNO][  4]);
  BAS[ATNO][  4].l  = 1;
  BAS[ATNO][  4].ng = 18;
  BAS[ATNO][  4].a[  0] =         4.895000000000;     BAS[ATNO][  4].d[  0] =         0.008703564564;
  BAS[ATNO][  4].a[  1] =         1.044000000000;     BAS[ATNO][  4].d[  1] =        -0.067489993094;
  BAS[ATNO][  4].a[  2] =         0.387700000000;     BAS[ATNO][  4].d[  2] =        -0.038073785134;
  BAS[ATNO][  4].a[  3] =         4.895000000000;     BAS[ATNO][  4].d[  3] =        -0.002154639297;
  BAS[ATNO][  4].a[  4] =         1.044000000000;     BAS[ATNO][  4].d[  4] =         0.016707705240;
  BAS[ATNO][  4].a[  5] =         0.387700000000;     BAS[ATNO][  4].d[  5] =         0.009425479990;
  BAS[ATNO][  4].a[  6] =         4.895000000000;     BAS[ATNO][  4].d[  6] =        -0.000059850257;
  BAS[ATNO][  4].a[  7] =         1.044000000000;     BAS[ATNO][  4].d[  7] =         0.000464096453;
  BAS[ATNO][  4].a[  8] =         0.387700000000;     BAS[ATNO][  4].d[  8] =         0.000261815238;
  BAS[ATNO][  4].a[  9] =         0.499500000000;     BAS[ATNO][  4].d[  9] =         0.004534566030;
  BAS[ATNO][  4].a[ 10] =         0.078000000000;     BAS[ATNO][  4].d[ 10] =        -0.043453966972;
  BAS[ATNO][  4].a[ 11] =         0.499500000000;     BAS[ATNO][  4].d[ 11] =        -0.001122569275;
  BAS[ATNO][  4].a[ 12] =         0.078000000000;     BAS[ATNO][  4].d[ 12] =         0.010757388442;
  BAS[ATNO][  4].a[ 13] =         0.499500000000;     BAS[ATNO][  4].d[ 13] =        -0.000031182045;
  BAS[ATNO][  4].a[ 14] =         0.078000000000;     BAS[ATNO][  4].d[ 14] =         0.000298812180;
  BAS[ATNO][  4].a[ 15] =         0.024700000000;     BAS[ATNO][  4].d[ 15] =         1.002838666490;
  BAS[ATNO][  4].a[ 16] =         0.024700000000;     BAS[ATNO][  4].d[ 16] =        -0.248260995078;
  BAS[ATNO][  4].a[ 17] =         0.024700000000;     BAS[ATNO][  4].d[ 17] =        -0.006896042607;

  // Basis function   6 L = p
  InitBFNGauss(BAS[ATNO][  5]);
  BAS[ATNO][  5].l  = 1;
  BAS[ATNO][  5].ng = 18;
  BAS[ATNO][  5].a[  0] =         4.895000000000;     BAS[ATNO][  5].d[  0] =         0.021818707784;
  BAS[ATNO][  5].a[  1] =         1.044000000000;     BAS[ATNO][  5].d[  1] =        -0.169188661362;
  BAS[ATNO][  5].a[  2] =         0.387700000000;     BAS[ATNO][  5].d[  2] =        -0.095446042361;
  BAS[ATNO][  5].a[  3] =         4.895000000000;     BAS[ATNO][  5].d[  3] =        -0.005401401329;
  BAS[ATNO][  5].a[  4] =         1.044000000000;     BAS[ATNO][  5].d[  4] =         0.041884050575;
  BAS[ATNO][  5].a[  5] =         0.387700000000;     BAS[ATNO][  5].d[  5] =         0.023628456146;
  BAS[ATNO][  5].a[  6] =         4.895000000000;     BAS[ATNO][  5].d[  6] =        -0.000150036834;
  BAS[ATNO][  5].a[  7] =         1.044000000000;     BAS[ATNO][  5].d[  7] =         0.001163429629;
  BAS[ATNO][  5].a[  8] =         0.387700000000;     BAS[ATNO][  5].d[  8] =         0.000656336853;
  BAS[ATNO][  5].a[  9] =         0.499500000000;     BAS[ATNO][  5].d[  9] =        -0.148276704520;
  BAS[ATNO][  5].a[ 10] =         0.078000000000;     BAS[ATNO][  5].d[ 10] =         1.420910177014;
  BAS[ATNO][  5].a[ 11] =         0.499500000000;     BAS[ATNO][  5].d[ 11] =         0.036707122931;
  BAS[ATNO][  5].a[ 12] =         0.078000000000;     BAS[ATNO][  5].d[ 12] =        -0.351758050671;
  BAS[ATNO][  5].a[ 13] =         0.499500000000;     BAS[ATNO][  5].d[ 13] =         0.001019628088;
  BAS[ATNO][  5].a[ 14] =         0.078000000000;     BAS[ATNO][  5].d[ 14] =        -0.009770920735;
  BAS[ATNO][  5].a[ 15] =         0.024700000000;     BAS[ATNO][  5].d[ 15] =        -0.891610068479;
  BAS[ATNO][  5].a[ 16] =         0.024700000000;     BAS[ATNO][  5].d[ 16] =         0.220725436921;
  BAS[ATNO][  5].a[ 17] =         0.024700000000;     BAS[ATNO][  5].d[ 17] =         0.006131176655;

  // Basis function   7 L = d
  InitBFNGauss(BAS[ATNO][  6]);
  BAS[ATNO][  6].l  = 2;
  BAS[ATNO][  6].ng = 18;
  BAS[ATNO][  6].a[  0] =         2.361000000000;     BAS[ATNO][  6].d[  0] =        -0.000394356823;
  BAS[ATNO][  6].a[  1] =         1.309000000000;     BAS[ATNO][  6].d[  1] =         0.000894978457;
  BAS[ATNO][  6].a[  2] =         0.450000000000;     BAS[ATNO][  6].d[  2] =         0.001382987168;
  BAS[ATNO][  6].a[  3] =         2.361000000000;     BAS[ATNO][  6].d[  3] =        -0.000579106298;
  BAS[ATNO][  6].a[  4] =         1.309000000000;     BAS[ATNO][  6].d[  4] =         0.001457844837;
  BAS[ATNO][  6].a[  5] =         0.450000000000;     BAS[ATNO][  6].d[  5] =         0.004334596348;
  BAS[ATNO][  6].a[  6] =         0.168100000000;     BAS[ATNO][  6].d[  6] =        -0.010057875114;
  BAS[ATNO][  6].a[  7] =         0.042300000000;     BAS[ATNO][  6].d[  7] =        -0.094327177966;
  BAS[ATNO][  6].a[  8] =         2.993000000000;     BAS[ATNO][  6].d[  8] =         0.035410913983;
  BAS[ATNO][  6].a[  9] =         1.063000000000;     BAS[ATNO][  6].d[  9] =         0.336189260746;
  BAS[ATNO][  6].a[ 10] =         0.372100000000;     BAS[ATNO][  6].d[ 10] =         0.389273550680;
  BAS[ATNO][  6].a[ 11] =         2.993000000000;     BAS[ATNO][  6].d[ 11] =        -0.014481265437;
  BAS[ATNO][  6].a[ 12] =         1.063000000000;     BAS[ATNO][  6].d[ 12] =        -0.137484333905;
  BAS[ATNO][  6].a[ 13] =         0.372100000000;     BAS[ATNO][  6].d[ 13] =        -0.159193112544;
  BAS[ATNO][  6].a[ 14] =         2.993000000000;     BAS[ATNO][  6].d[ 14] =        -0.000504739471;
  BAS[ATNO][  6].a[ 15] =         1.063000000000;     BAS[ATNO][  6].d[ 15] =        -0.004791968650;
  BAS[ATNO][  6].a[ 16] =         0.372100000000;     BAS[ATNO][  6].d[ 16] =        -0.005548620581;
  BAS[ATNO][  6].a[ 17] =         2.993000000000;     BAS[ATNO][  6].d[ 17] =         0.006427118923;

-------------------------------------------
RADIAL EXPECTATION VALUES <R**-3> TO <R**3>
-------------------------------------------
   0 :     0.000000     1.096628     0.983387     1.139120     1.443556     2.026832
   1 :     1.093711     0.913183     0.892433     1.271533     1.824344     2.944947
   2 :     1.093297     0.912898     0.892257     1.271975     1.826114     2.951239
   3 :     0.000000     0.152767     0.325259     3.750939    16.301967    80.101224
   4 :     1.091545     0.911694     0.891508     1.273869     1.833773     2.979036
   5 :     0.445814     0.469316     0.615729     2.007435     4.949737    73.289067
   6 :     0.474563     0.493445     0.634842     1.923527     4.503501    63.199612
   7 :     0.474824     0.493630     0.635022     1.922289     4.494927    63.232022
   8 :     0.466500     0.486609     0.629495     1.946257     4.621671    66.101547
   9 :     0.464834     0.485202     0.628385     1.951093     4.647307    66.683333
  10 :     0.012400     0.034342     0.165735     6.833990    51.378228   418.657933
  11 :     0.012261     0.034108     0.165262     6.848069    51.560072   420.578709
  12 :     0.011503     0.032905     0.162892     6.918171    52.466776   430.170465
  13 :     0.078242     0.108709     0.269922     5.021135    32.900806   263.598907
  14 :     0.078796     0.109228     0.270571     5.006613    32.717192   261.671839
  15 :     0.081305     0.111635     0.273689     4.934618    31.802829   252.052286
  16 :     0.229815     0.239837     0.387026     3.521578    14.399789   317.786216
  17 :     0.229836     0.239849     0.387036     3.521536    14.399542   317.789002
  18 :     0.257717     0.263507     0.405723     3.439754    13.965248   307.820558
  19 :     0.238161     0.246871     0.392563     3.497567    14.272799   314.919476
  20 :     0.239826     0.248278     0.393672     3.492731    14.247163   314.337690
  21 :     0.000002     1.259924     0.579173     3.757348    19.078889   111.479990
Making the total density                ... o.k.
o.k.
Initializing the integrals              ... done
Making exponents                        ... done
Making rho(0)                           ... done (         0.000014122)
Integral calculation                    ... Two index integrals                     ... done
Solving the equation system             ... done
atomic density will be written to file Mo-TAEA-NH3_0_2_bp86_lanl2dz_6-31gpol.opt_atom42.adf

-------
TIMINGS
-------

Total SCF time: 0 days 0 hours 0 min 0 sec 

Total time                  ....       0.797 sec
Sum of individual times     ....       0.133 sec  ( 16.7%)

Fock matrix formation       ....       0.098 sec  ( 12.3%)
Diagonalization             ....       0.013 sec  (  1.6%)
Density matrix formation    ....       0.000 sec  (  0.0%)
Population analysis         ....       0.000 sec  (  0.0%)
Initial guess               ....       0.001 sec  (  0.1%)
Orbital Transformation      ....       0.000 sec  (  0.0%)
Orbital Orthonormalization  ....       0.000 sec  (  0.0%)
DIIS solution               ....       0.021 sec  (  2.7%)

-------------------------   --------------------
FINAL SINGLE POINT ENERGY       -66.758043649415
-------------------------   --------------------


                            ***************************************
                            *     ORCA property calculations      *
                            ***************************************

                                    ---------------------
                                    Active property flags
                                    ---------------------
   (+) Dipole Moment


------------------------------------------------------------------------------
                       ORCA ELECTRIC PROPERTIES CALCULATION
------------------------------------------------------------------------------

Dipole Moment Calculation                       ... on
Quadrupole Moment Calculation                   ... off
Polarizability Calculation                      ... off
GBWName                                         ... Mo-TAEA-NH3_0_2_bp86_lanl2dz_6-31gpol.opt_atom42.gbw
Electron density file                           ... Mo-TAEA-NH3_0_2_bp86_lanl2dz_6-31gpol.opt_atom42.scfp
The origin for moment calculation is the CENTER OF MASS  = ( 0.000000,  0.000000  0.000000)

-------------
DIPOLE MOMENT
-------------
                                X             Y             Z
Electronic contribution:     -0.00000      -0.00000       0.00000
Nuclear contribution   :      0.00000       0.00000       0.00000
                        -----------------------------------------
Total Dipole Moment    :     -0.00000      -0.00000       0.00000
                        -----------------------------------------
Magnitude (a.u.)       :      0.00000
Magnitude (Debye)      :      0.00000



--------------------
Rotational spectrum 
--------------------
 
Rotational constants in cm-1:     0.000000     0.000000     0.000000 
Rotational constants in MHz :     0.000000     0.000000     0.000000 

 Dipole components along the rotational axes: 
x,y,z [a.u.] :    -0.000000    -0.000000     0.000000 
x,y,z [Debye]:    -0.000000    -0.000000     0.000000 

 

Timings for individual modules:

Sum of individual times         ...        1.233 sec (=   0.021 min)
GTO integral calculation        ...        0.318 sec (=   0.005 min)  25.8 %
SCF iterations                  ...        0.915 sec (=   0.015 min)  74.2 %
                             ****ORCA TERMINATED NORMALLY****
TOTAL RUN TIME: 0 days 0 hours 0 minutes 1 seconds 525 msec
