
                                 *****************
                                 * O   R   C   A *
                                 *****************

           --- An Ab Initio, DFT and Semiempirical electronic structure package ---

                  #######################################################
                  #                        -***-                        #
                  #          Department of theory and spectroscopy      #
                  #               Directorship: Frank Neese             #
                  #        Max Planck Institute fuer Kohlenforschung    #
                  #                Kaiser Wilhelm Platz 1               #
                  #                 D-45470 Muelheim/Ruhr               #
                  #                      Germany                        #
                  #                                                     #
                  #                  All rights reserved                #
                  #                        -***-                        #
                  #######################################################


                         Program Version 4.2.0 -  RELEASE  -


 With contributions from (in alphabetic order):
   Daniel Aravena         : Magnetic Suceptibility
   Michael Atanasov       : Ab Initio Ligand Field Theory (pilot matlab implementation)
   Alexander A. Auer      : GIAO ZORA, VPT2
   Ute Becker             : Parallelization
   Giovanni Bistoni       : ED, misc. LED, open-shell LED, HFLED
   Martin Brehm           : Molecular dynamics
   Dmytro Bykov           : SCF Hessian
   Vijay G. Chilkuri      : MRCI spin determinant printing, contributions to CSF-ICE
   Dipayan Datta          : RHF DLPNO-CCSD density
   Achintya Kumar Dutta   : EOM-CC, STEOM-CC
   Dmitry Ganyushin       : Spin-Orbit,Spin-Spin,Magnetic field MRCI
   Miquel Garcia          : C-PCM Hessian, Gaussian charge scheme
   Yang Guo               : DLPNO-NEVPT2, CIM, IAO-localization
   Andreas Hansen         : Spin unrestricted coupled pair/coupled cluster methods
   Benjamin Helmich-Paris : CASSCF linear response (MC-RPA)
   Lee Huntington         : MR-EOM, pCC
   Robert Izsak           : Overlap fitted RIJCOSX, COSX-SCS-MP3, EOM
   Christian Kollmar      : KDIIS, OOCD, Brueckner-CCSD(T), CCSD density
   Simone Kossmann        : Meta GGA functionals, TD-DFT gradient, OOMP2, MP2 Hessian
   Martin Krupicka        : AUTO-CI
   Lucas Lang             : DCDCAS
   Dagmar Lenk            : GEPOL surface, SMD
   Dimitrios Liakos       : Extrapolation schemes; Compound Job, initial MDCI parallelization
   Dimitrios Manganas     : Further ROCIS development; embedding schemes
   Dimitrios Pantazis     : SARC Basis sets
   Taras Petrenko         : DFT Hessian,TD-DFT gradient, ASA, ECA, R-Raman, ABS, FL, XAS/XES, NRVS
   Peter Pinski           : DLPNO-MP2, DLPNO-MP2 Gradient
   Christoph Reimann      : Effective Core Potentials
   Marius Retegan         : Local ZFS, SOC
   Christoph Riplinger    : Optimizer, TS searches, QM/MM, DLPNO-CCSD(T), (RO)-DLPNO pert. Triples
   Tobias Risthaus        : Range-separated hybrids, TD-DFT gradient, RPA, STAB
   Michael Roemelt        : Original ROCIS implementation
   Masaaki Saitow         : Open-shell DLPNO-CCSD energy and density
   Barbara Sandhoefer     : DKH picture change effects
   Avijit Sen             : IP-ROCIS
   Kantharuban Sivalingam : CASSCF convergence, NEVPT2, FIC-MRCI
   Bernardo de Souza      : ESD, SOC TD-DFT
   Georgi Stoychev        : AutoAux, RI-MP2 NMR
   Willem Van den Heuvel  : Paramagnetic NMR
   Boris Wezisla          : Elementary symmetry handling
   Frank Wennmohs         : Technical directorship


 We gratefully acknowledge several colleagues who have allowed us to
 interface, adapt or use parts of their codes:
   Stefan Grimme, W. Hujo, H. Kruse,             : VdW corrections, initial TS optimization,
                  C. Bannwarth                     DFT functionals, gCP, sTDA/sTD-DF
   Ed Valeev, F. Pavosevic, A. Kumar             : LibInt (2-el integral package), F12 methods
   Garnet Chan, S. Sharma, J. Yang, R. Olivares  : DMRG
   Ulf Ekstrom                                   : XCFun DFT Library
   Mihaly Kallay                                 : mrcc  (arbitrary order and MRCC methods)
   Andreas Klamt, Michael Diedenhofen            : otool_cosmo (COSMO solvation model)
   Jiri Pittner, Ondrej Demel                    : Mk-CCSD
   Frank Weinhold                                : gennbo (NPA and NBO analysis)
   Christopher J. Cramer and Donald G. Truhlar   : smd solvation model
   Lars Goerigk                                  : TD-DFT with DH, B97 family of functionals
   V. Asgeirsson, H. Jonsson                     : NEB implementation
   FAccTs GmbH                                   : IRC, NEB, NEB-TS, Multilevel, MM, QM/MM, CI optimization
   S Lehtola, MJT Oliveira, MAL Marques          : LibXC Library


 Your calculation uses the libint2 library for the computation of 2-el integrals
 For citations please refer to: http://libint.valeyev.net

 Your ORCA version has been built with support for libXC version: 4.2.3
 For citations please refer to: https://tddft.org/programs/libxc/

 This ORCA versions uses:
   CBLAS   interface :  Fast vector & matrix operations
   LAPACKE interface :  Fast linear algebra routines
   SCALAPACK package :  Parallel linear algebra routines




***************************************
The coordinates will be read from file: Mo-TAEA-NH3_0_2_bp86_lanl2dz_6-31gpol.opt.xyz
***************************************


----- Orbital basis set information -----
Your calculation utilizes the basis: def2-SVP
   F. Weigend and R. Ahlrichs, Phys. Chem. Chem. Phys. 7, 3297 (2005).

----- AuxJ basis set information -----
Your calculation utilizes the AutoAux generation procedure.
  G. L. Stoychev, A. A. Auer, F. Neese, J. Chem. Theory Comput. 13, 554 (2017)

----- AuxC basis set information -----
Your calculation utilizes the AutoAux generation procedure.
  G. L. Stoychev, A. A. Auer, F. Neese, J. Chem. Theory Comput. 13, 554 (2017)

----- AuxJK basis set information -----
Your calculation utilizes the AutoAux generation procedure.
  G. L. Stoychev, A. A. Auer, F. Neese, J. Chem. Theory Comput. 13, 554 (2017)

cite the ECPs for Mo [Def2-ECP] as follows:
Ce-Yb(ecp-28): M. Dolg, H. Stoll, H.Preuss, J. Chem. Phys., 1989, 90, 1730-1734.
Y-Cd(ecp-28), Hf-Hg(ecp-46): D. Andrae,U. Haeussermann, M. Dolg, H. Stoll, H. Preuss, Theor. Chim. Acta, 1990, 77, 123-141.
In-Sb(ecp-28), Tl-Bi(ecp-46): B. Metz, H. Stoll, M. Dolg, J. Chem. Phys., 2000, 113, 2563-2569.
Te-Xe(ecp-28), Po-Rn(ecp-46): K. A. Peterson, D. Figgen, E. Goll, H. Stoll, M. Dolg, J. Chem. Phys., 2003, 119, 11113-11123.
Rb(ecp-28), Cs(ecp-46): T. Leininger, A. Nicklass, W. Kuechle, H. Stoll, M. Dolg, A. Bergner, Chem. Phys. Lett., 1996, 255, 274-280.
Sr(ecp-28), Ba(ecp-46): M. Kaupp, P. V. Schleyer, H. Stoll and H. Preuss, J. Chem. Phys., 1991, 94, 1360-1366.
La(ecp-46): M. Dolg, H. Stoll, A. Savin, H. Preuss, Theor. Chim. Acta, 1989, 75, 173-194.
Lu(ecp-28): X. Cao, M. Dolg, J. Chem. Phys., 2001, 115, 7348-7355.

ECP parameters for Mo [Def2-ECP] have been obtained from:
TURBOMOLE (7.0.2)

================================================================================
                                        WARNINGS
                       Please study these warnings very carefully!
================================================================================


INFO   : the flag for use of LIBINT has been found!

================================================================================
                                       INPUT FILE
================================================================================
NAME = Mo-TAEA-NH3_0_2_UHF_def2-tzvpp_def2-svp.rot.inp
|  1> !uhf def2-svp tightscf 
|  2> !normalprint autoaux rijcosx uno
|  3> !moread noiter
|  4> 
|  5> %moinp "Mo-TAEA-NH3_0_2_UHF_def2-tzvpp_def2-svp.sp.uno"
|  6> 
|  7> %scf
|  8>   rotate {54,57,98} end
|  9> end
| 10> 
| 11> %basis
| 12>   newgto Mo "def2-tzvpp" end
| 13> end
| 14> 
| 15> *xyzfile 0 2 Mo-TAEA-NH3_0_2_bp86_lanl2dz_6-31gpol.opt.xyz
| 16> 
| 17>                          ****END OF INPUT****
================================================================================

                       ****************************
                       * Single Point Calculation *
                       ****************************

---------------------------------
CARTESIAN COORDINATES (ANGSTROEM)
---------------------------------
  Mo     7.161049   15.739738   13.552686
  N      5.471131   15.197321   14.433170
  N      8.746513   14.519192   13.704041
  N      7.513929   17.690751   13.295368
  N      7.695166   16.198866   15.587176
  N      6.603922   15.231830   11.462641
  H      7.300179   14.609821   11.024603
  H      6.582185   16.069042   10.861573
  H      5.689405   14.766295   11.323835
  C      5.318330   15.472719   15.889445
  H      4.718837   14.691744   16.407905
  H      4.803931   16.445807   16.083145
  C      6.730529   15.489986   16.521529
  H      6.730688   15.959049   17.529273
  H      7.091922   14.450770   16.617908
  C      9.341792   14.392155   15.055764
  H      8.898896   13.552112   15.643655
  H     10.439166   14.205749   15.018849
  C      9.115827   15.727841   15.802263
  H      9.351319   15.638174   16.885554
  H      9.771732   16.497146   15.359352
  C      8.072414   18.413421   14.460314
  H      7.732135   19.471513   14.510628
  H      9.187754   18.441834   14.435862
  C      7.596196   17.702186   15.754170
  H      8.166575   18.034873   16.649563
  H      6.527762   17.934893   15.909817
  H      7.282313   18.335594   12.527952
  H      4.557056   14.915977   14.040522
  H      8.871089   13.632708   13.191849

----------------------------
CARTESIAN COORDINATES (A.U.)
----------------------------
  NO LB      ZA    FRAG     MASS         X           Y           Z
   0 Mo   14.0000*   0    95.940   13.532422   29.743793   25.610866
   1 N     7.0000    0    14.007   10.338940   28.718775   27.274739
   2 N     7.0000    0    14.007   16.528514   27.437296   25.896884
   3 N     7.0000    0    14.007   14.199268   33.430674   25.124604
   4 N     7.0000    0    14.007   14.541757   30.611421   29.455494
   5 N     7.0000    0    14.007   12.479604   28.783986   21.661253
   6 H     1.0000    0     1.008   13.795339   27.608561   20.833480
   7 H     1.0000    0     1.008   12.438526   30.366089   20.525399
   8 H     1.0000    0     1.008   10.751417   27.904253   21.398946
   9 C     6.0000    0    12.011   10.050188   29.239201   30.026700
  10 H     1.0000    0     1.008    8.917310   27.763372   31.006447
  11 H     1.0000    0     1.008    9.078115   31.078071   30.392739
  12 C     6.0000    0    12.011   12.718857   29.271831   31.221165
  13 H     1.0000    0     1.008   12.719157   30.158232   33.125525
  14 H     1.0000    0     1.008   13.401791   27.307997   31.403296
  15 C     6.0000    0    12.011   17.653429   27.197232   28.451270
  16 H     1.0000    0     1.008   16.816477   25.609780   29.562224
  17 H     1.0000    0     1.008   19.727164   26.844974   28.381512
  18 C     6.0000    0    12.011   17.226417   29.721313   29.861948
  19 H     1.0000    0     1.008   17.671432   29.551867   31.909073
  20 H     1.0000    0     1.008   18.465898   31.175088   29.024968
  21 C     6.0000    0    12.011   15.254652   34.796322   27.326033
  22 H     1.0000    0     1.008   14.611617   36.795826   27.421113
  23 H     1.0000    0     1.008   17.362339   34.850015   27.279825
  24 C     6.0000    0    12.011   14.354730   33.452283   29.771067
  25 H     1.0000    0     1.008   15.432589   34.080971   31.463114
  26 H     1.0000    0     1.008   12.335682   33.892037   30.065196
  27 H     1.0000    0     1.008   13.761577   34.649251   23.674398
  28 H     1.0000    0     1.008    8.611588   28.187112   26.532742
  29 H     1.0000    0     1.008   16.763929   25.762084   24.928982
* core charge reduced due to ECP

--------------------------------
INTERNAL COORDINATES (ANGSTROEM)
--------------------------------
 Mo     0   0   0     0.000000000000     0.00000000     0.00000000
 N      1   0   0     1.981234642873     0.00000000     0.00000000
 N      1   2   0     2.006572682212   118.28790299     0.00000000
 N      1   2   3     1.999297310526   118.35363094   207.25629586
 N      1   2   3     2.152957791624    81.37503503   283.86639245
 N      1   2   3     2.221857283880    98.13949128   103.06988836
 H      6   1   2     1.031283661258   111.60087104   233.50743684
 H      6   1   2     1.030863984925   111.59942952   116.54725674
 H      6   1   2     1.035534290335   116.76319240   355.02085702
 C      2   1   3     1.489942550913   118.11486432    82.33578703
 H     10   2   1     1.112705899112   112.39177158   213.59800283
 H     10   2   1     1.117598495088   112.18148717    93.74387220
 C      5   1   2     1.518568853087   108.92250654    16.99158323
 H     13   5   1     1.111561056865   111.14576342   199.86639625
 H     13   5   1     1.104474753788   106.56280956    81.79111518
 C      3   1   2     1.482447642628   115.98802362   291.79060209
 H     16   3   1     1.116891407069   112.65419201    91.04333353
 H     16   3   1     1.113704756387   112.32029921   211.17653548
 C      5   1   2     1.512086208770   107.52204052   137.76368300
 H     19   5   1     1.112212683555   111.25936073   197.71409111
 H     19   5   1     1.103725768588   106.50684944    79.36845554
 C      4   1   2     1.480289376421   116.21295274    82.42716226
 H     22   4   1     1.112600639760   112.61131513   212.51074522
 H     22   4   1     1.115969832290   111.85473104    92.72859252
 C      5   1   2     1.515800861446   107.42203338   257.02698309
 H     25   5   1     1.112537513584   110.59526786   198.66482789
 H     25   5   1     1.104504813610   106.71669465    80.67871613
 H      4   1   2     1.028783563807   131.90775782   270.53642578
 H      2   1   3     1.033857110109   131.28910945   247.89365626
 H      3   1   2     1.031364636486   125.50726437    74.89190536

---------------------------
INTERNAL COORDINATES (A.U.)
---------------------------
 Mo     0   0   0     0.000000000000     0.00000000     0.00000000
 N      1   0   0     3.743990882067     0.00000000     0.00000000
 N      1   2   0     3.791872837188   118.28790299     0.00000000
 N      1   2   3     3.778124377179   118.35363094   207.25629586
 N      1   2   3     4.068500604062    81.37503503   283.86639245
 N      1   2   3     4.198701775191    98.13949128   103.06988836
 H      6   1   2     1.948843686166   111.60087104   233.50743684
 H      6   1   2     1.948050612830   111.59942952   116.54725674
 H      6   1   2     1.956876211018   116.76319240   355.02085702
 C      2   1   3     2.815583376501   118.11486432    82.33578703
 H     10   2   1     2.102709416921   112.39177158   213.59800283
 H     10   2   1     2.111955083398   112.18148717    93.74387220
 C      5   1   2     2.869679247837   108.92250654    16.99158323
 H     13   5   1     2.100545978607   111.14576342   199.86639625
 H     13   5   1     2.087154806489   106.56280956    81.79111518
 C      3   1   2     2.801420052444   115.98802362   291.79060209
 H     16   3   1     2.110618880691   112.65419201    91.04333353
 H     16   3   1     2.104596983617   112.32029921   211.17653548
 C      5   1   2     2.857428825454   107.52204052   137.76368300
 H     19   5   1     2.101777374592   111.25936073   197.71409111
 H     19   5   1     2.085739429584   106.50684944    79.36845554
 C      4   1   2     2.797341520389   116.21295274    82.42716226
 H     22   4   1     2.102510505572   112.61131513   212.51074522
 H     22   4   1     2.108877356746   111.85473104    92.72859252
 C      5   1   2     2.864448501696   107.42203338   257.02698309
 H     25   5   1     2.102391214387   110.59526786   198.66482789
 H     25   5   1     2.087211611321   106.71669465    80.67871613
 H      4   1   2     1.944119186674   131.90775782   270.53642578
 H      2   1   3     1.953706799712   131.28910945   247.89365626
 H      3   1   2     1.948996707170   125.50726437    74.89190536

---------------------
BASIS SET INFORMATION
---------------------
There are 4 groups of distinct atoms

 Group   1 Type Mo  : 7s7p5d2f1g contracted to 6s4p3d2f1g pattern {211111/4111/311/11/1}
 Group   2 Type N   : 7s4p1d contracted to 3s2p1d pattern {511/31/1}
 Group   3 Type H   : 4s1p contracted to 2s1p pattern {31/1}
 Group   4 Type C   : 7s4p1d contracted to 3s2p1d pattern {511/31/1}

Atom   0Mo   basis set group =>   1
Atom   1N    basis set group =>   2
Atom   2N    basis set group =>   2
Atom   3N    basis set group =>   2
Atom   4N    basis set group =>   2
Atom   5N    basis set group =>   2
Atom   6H    basis set group =>   3
Atom   7H    basis set group =>   3
Atom   8H    basis set group =>   3
Atom   9C    basis set group =>   4
Atom  10H    basis set group =>   3
Atom  11H    basis set group =>   3
Atom  12C    basis set group =>   4
Atom  13H    basis set group =>   3
Atom  14H    basis set group =>   3
Atom  15C    basis set group =>   4
Atom  16H    basis set group =>   3
Atom  17H    basis set group =>   3
Atom  18C    basis set group =>   4
Atom  19H    basis set group =>   3
Atom  20H    basis set group =>   3
Atom  21C    basis set group =>   4
Atom  22H    basis set group =>   3
Atom  23H    basis set group =>   3
Atom  24C    basis set group =>   4
Atom  25H    basis set group =>   3
Atom  26H    basis set group =>   3
Atom  27H    basis set group =>   3
Atom  28H    basis set group =>   3
Atom  29H    basis set group =>   3
---------------------------------
AUXILIARY/J BASIS SET INFORMATION
---------------------------------
There are 4 groups of distinct atoms

 Group   1 Type Mo  : 12s11p11d9f9g3h3i contracted to 12s11p11d9f9g3h3i pattern {111111111111/11111111111/11111111111/111111111/111111111/111/111}
 Group   2 Type N   : 14s11p10d2f contracted to 14s11p10d2f pattern {11111111111111/11111111111/1111111111/11}
 Group   3 Type H   : 9s2p1d contracted to 9s2p1d pattern {111111111/11/1}
 Group   4 Type C   : 14s11p10d2f contracted to 14s11p10d2f pattern {11111111111111/11111111111/1111111111/11}

Atom   0Mo   basis set group =>   1
Atom   1N    basis set group =>   2
Atom   2N    basis set group =>   2
Atom   3N    basis set group =>   2
Atom   4N    basis set group =>   2
Atom   5N    basis set group =>   2
Atom   6H    basis set group =>   3
Atom   7H    basis set group =>   3
Atom   8H    basis set group =>   3
Atom   9C    basis set group =>   4
Atom  10H    basis set group =>   3
Atom  11H    basis set group =>   3
Atom  12C    basis set group =>   4
Atom  13H    basis set group =>   3
Atom  14H    basis set group =>   3
Atom  15C    basis set group =>   4
Atom  16H    basis set group =>   3
Atom  17H    basis set group =>   3
Atom  18C    basis set group =>   4
Atom  19H    basis set group =>   3
Atom  20H    basis set group =>   3
Atom  21C    basis set group =>   4
Atom  22H    basis set group =>   3
Atom  23H    basis set group =>   3
Atom  24C    basis set group =>   4
Atom  25H    basis set group =>   3
Atom  26H    basis set group =>   3
Atom  27H    basis set group =>   3
Atom  28H    basis set group =>   3
Atom  29H    basis set group =>   3
---------------------------------
AUXILIARY/C BASIS SET INFORMATION
---------------------------------
There are 4 groups of distinct atoms

 Group   1 Type Mo  : 12s11p11d9f9g3h3i contracted to 12s11p11d9f9g3h3i pattern {111111111111/11111111111/11111111111/111111111/111111111/111/111}
 Group   2 Type N   : 14s11p10d2f contracted to 14s11p10d2f pattern {11111111111111/11111111111/1111111111/11}
 Group   3 Type H   : 9s2p1d contracted to 9s2p1d pattern {111111111/11/1}
 Group   4 Type C   : 14s11p10d2f contracted to 14s11p10d2f pattern {11111111111111/11111111111/1111111111/11}

Atom   0Mo   basis set group =>   1
Atom   1N    basis set group =>   2
Atom   2N    basis set group =>   2
Atom   3N    basis set group =>   2
Atom   4N    basis set group =>   2
Atom   5N    basis set group =>   2
Atom   6H    basis set group =>   3
Atom   7H    basis set group =>   3
Atom   8H    basis set group =>   3
Atom   9C    basis set group =>   4
Atom  10H    basis set group =>   3
Atom  11H    basis set group =>   3
Atom  12C    basis set group =>   4
Atom  13H    basis set group =>   3
Atom  14H    basis set group =>   3
Atom  15C    basis set group =>   4
Atom  16H    basis set group =>   3
Atom  17H    basis set group =>   3
Atom  18C    basis set group =>   4
Atom  19H    basis set group =>   3
Atom  20H    basis set group =>   3
Atom  21C    basis set group =>   4
Atom  22H    basis set group =>   3
Atom  23H    basis set group =>   3
Atom  24C    basis set group =>   4
Atom  25H    basis set group =>   3
Atom  26H    basis set group =>   3
Atom  27H    basis set group =>   3
Atom  28H    basis set group =>   3
Atom  29H    basis set group =>   3
----------------------------------
AUXILIARY/JK BASIS SET INFORMATION
----------------------------------
There are 4 groups of distinct atoms

 Group   1 Type Mo  : 12s11p11d9f9g3h3i contracted to 12s11p11d9f9g3h3i pattern {111111111111/11111111111/11111111111/111111111/111111111/111/111}
 Group   2 Type N   : 14s11p10d2f contracted to 14s11p10d2f pattern {11111111111111/11111111111/1111111111/11}
 Group   3 Type H   : 9s2p1d contracted to 9s2p1d pattern {111111111/11/1}
 Group   4 Type C   : 14s11p10d2f contracted to 14s11p10d2f pattern {11111111111111/11111111111/1111111111/11}

Atom   0Mo   basis set group =>   1
Atom   1N    basis set group =>   2
Atom   2N    basis set group =>   2
Atom   3N    basis set group =>   2
Atom   4N    basis set group =>   2
Atom   5N    basis set group =>   2
Atom   6H    basis set group =>   3
Atom   7H    basis set group =>   3
Atom   8H    basis set group =>   3
Atom   9C    basis set group =>   4
Atom  10H    basis set group =>   3
Atom  11H    basis set group =>   3
Atom  12C    basis set group =>   4
Atom  13H    basis set group =>   3
Atom  14H    basis set group =>   3
Atom  15C    basis set group =>   4
Atom  16H    basis set group =>   3
Atom  17H    basis set group =>   3
Atom  18C    basis set group =>   4
Atom  19H    basis set group =>   3
Atom  20H    basis set group =>   3
Atom  21C    basis set group =>   4
Atom  22H    basis set group =>   3
Atom  23H    basis set group =>   3
Atom  24C    basis set group =>   4
Atom  25H    basis set group =>   3
Atom  26H    basis set group =>   3
Atom  27H    basis set group =>   3
Atom  28H    basis set group =>   3
Atom  29H    basis set group =>   3
-------------------------
ECP PARAMETER INFORMATION
-------------------------

 Group 1, Type Mo ECP Def2-ECP (replacing 28 core electrons, lmax=3)

Atom   0Mo   ECP group =>   1

------------------------------------------------------------------------------
                           ORCA GTO INTEGRAL CALCULATION
                           -- RI-GTO INTEGRALS CHOSEN --
------------------------------------------------------------------------------

                         BASIS SET STATISTICS AND STARTUP INFO

Gaussian basis set:
 # of primitive gaussian shells          ...  244
 # of primitive gaussian functions       ...  466
 # of contracted shells                  ...  136
 # of contracted basis functions         ...  300
 Highest angular momentum                ...    4
 Maximum contraction depth               ...    5
Auxiliary gaussian basis set:
 # of primitive gaussian shells          ...  681
 # of primitive gaussian functions       ... 1897
 # of contracted shells                  ...  681
 # of contracted aux-basis functions     ... 1897
 Highest angular momentum                ...    6
 Maximum contraction depth               ...    1
Ratio of auxiliary to basis functions    ...  6.32
Integral package used                  ... LIBINT
 One Electron integrals                  
   ECP integrals                         ... done
 Ordering auxiliary basis shells         ... done
 Integral threshhold             Thresh  ...  2.500e-11
 Primitive cut-off               TCut    ...  2.500e-12
 Pre-screening matrix                    ... done
 Shell pair data                         ... 
 Ordering of the shell pairs             ... done (   0.002 sec) 8523 of 9316 pairs
 Determination of significant pairs      ... done (   0.000 sec)
 Creation of shell pair data             ... done (   0.002 sec)
 Storage of shell pair data              ... done (   0.005 sec)
 Shell pair data done in (   0.009 sec)
 Computing two index integrals           ... done
 Cholesky decomposition of the V-matrix  ... done


Timings:
 Total evaluation time                   ...   1.663 sec (  0.028 min)
 One electron matrix time                ...   1.167 sec (  0.019 min) = 70.2%
 Schwartz matrix evaluation time         ...   0.142 sec (  0.002 min) =  8.6%
 Two index repulsion integral time       ...   0.216 sec (  0.004 min) = 13.0%
 Cholesky decomposition of V             ...   0.093 sec (  0.002 min) =  5.6%
 Three index repulsion integral time     ...   0.000 sec (  0.000 min) =  0.0%

-------------------------------------------------------------------------------
                                 ORCA SCF
-------------------------------------------------------------------------------

------------
SCF SETTINGS
------------
Hamiltonian:
 Ab initio Hamiltonian  Method          .... Hartree-Fock(GTOs)
 RI-approximation to the Coulomb term is turned on
   Number of auxiliary basis functions  .... 1897
   RIJ-COSX (HFX calculated with COS-X)).... on


General Settings:
 Integral files         IntName         .... Mo-TAEA-NH3_0_2_UHF_def2-tzvpp_def2-svp.rot
 Hartree-Fock type      HFTyp           .... UHF
 Total Charge           Charge          ....    0
 Multiplicity           Mult            ....    2
 Number of Electrons    NEL             ....  103
 Basis Dimension        Dim             ....  300
 Nuclear Repulsion      ENuc            ....    929.6310470229 Eh

Convergence Acceleration:
 DIIS                   CNVDIIS         .... on
   Start iteration      DIISMaxIt       ....    12
   Startup error        DIISStart       ....  0.200000
   # of expansion vecs  DIISMaxEq       ....     5
   Bias factor          DIISBfac        ....   1.050
   Max. coefficient     DIISMaxC        ....  10.000
 Newton-Raphson         CNVNR           .... off
 SOSCF                  CNVSOSCF        .... off
 Level Shifting         CNVShift        .... on
   Level shift para.    LevelShift      ....    0.2500
   Turn off err/grad.   ShiftErr        ....    0.0010
 Zerner damping         CNVZerner       .... off
 Static damping         CNVDamp         .... on
   Fraction old density DampFac         ....    0.7000
   Max. Damping (<1)    DampMax         ....    0.9800
   Min. Damping (>=0)   DampMin         ....    0.0000
   Turn off err/grad.   DampErr         ....    0.1000
 Fernandez-Rico         CNVRico         .... off

SCF Procedure:
 Maximum # iterations   MaxIter         ....     0
 SCF integral mode      SCFMode         .... Direct
   Integral package                     .... LIBINT
 Reset frequency        DirectResetFreq ....    20
 Integral Threshold     Thresh          ....  2.500e-11 Eh
 Primitive CutOff       TCut            ....  2.500e-12 Eh

Convergence Tolerance:
 Convergence Check Mode ConvCheckMode   .... Total+1el-Energy
 Convergence forced     ConvForced      .... 0
 Energy Change          TolE            ....  1.000e-08 Eh
 1-El. energy change                    ....  1.000e-05 Eh
 DIIS Error             TolErr          ....  5.000e-07


Diagonalization of the overlap matrix:
Smallest eigenvalue                        ... 1.643e-03
Time for diagonalization                   ...    0.017 sec
Threshold for overlap eigenvalues          ... 1.000e-08
Number of eigenvalues below threshold      ... 0
Time for construction of square roots      ...    0.009 sec
Total time needed                          ...    0.026 sec

---------------------
INITIAL GUESS: MOREAD
---------------------
Guess MOs are being read from file: Mo-TAEA-NH3_0_2_UHF_def2-tzvpp_def2-svp.sp.uno
Input Geometry matches current geometry (good)
Input basis set matches current basis set (good)
MOs were renormalized
MOs were reorthogonalized (Cholesky)
-----------------
ORBITAL ROTATIONS
-----------------
  Rotation  54(0)   57(0) cos(t)=-0.139173  sin(t)= 0.990268
                      ------------------
                      INITIAL GUESS DONE (   0.0 sec)
                      ------------------
--------------------
COSX GRID GENERATION
--------------------

General Integration Accuracy     IntAcc      ...  3.340
Radial Grid Type                 RadialGrid  ... Gauss-Chebyshev
Angular Grid (max. acc.)         AngularGrid ... Lebedev-50
Angular grid pruning method      GridPruning ... 3 (G Style)
Weight generation scheme         WeightScheme... Becke
Basis function cutoff            BFCut       ...    1.0000e-11
Integration weight cutoff        WCut        ...    1.0000e-14
Grids for H and He will be reduced by one unit

# of grid points (after initial pruning)     ...  13324 (   0.0 sec)
# of grid points (after weights+screening)   ...  12003 (   0.1 sec)
nearest neighbour list constructed           ...    0.0 sec
Grid point re-assignment to atoms done       ...    0.0 sec
Grid point division into batches done        ...    0.0 sec
Reduced shell lists constructed in    0.2 sec

Total number of grid points                  ...    12003
Total number of batches                      ...      204
Average number of points per batch           ...       58
Average number of grid points per atom       ...      400
Average number of shells per batch           ...    94.32 (69.35%)
Average number of basis functions per batch  ...   205.47 (68.49%)
Average number of large shells per batch     ...    70.56 (74.80%)
Average number of large basis fcns per batch ...   152.84 (74.38%)
Maximum spatial batch extension              ...  25.23, 20.83, 17.78 au
Average spatial batch extension              ...   4.22,  4.39,  4.38 au

Overlap Fitting                  UseSFitting ... on
Constructing numerical overlap ... done (      0.1 sec)
Inverting numerical overlap    ... done (      0.0 sec)
Obtaining analytic overlap     ... done (      0.0 sec)
Final contraction and storage  ... done (      0.0 sec)


General Integration Accuracy     IntAcc      ...  3.670
Radial Grid Type                 RadialGrid  ... Gauss-Chebyshev
Angular Grid (max. acc.)         AngularGrid ... Lebedev-50
Angular grid pruning method      GridPruning ... 3 (G Style)
Weight generation scheme         WeightScheme... Becke
Basis function cutoff            BFCut       ...    1.0000e-11
Integration weight cutoff        WCut        ...    1.0000e-14
Grids for H and He will be reduced by one unit

# of grid points (after initial pruning)     ...  17018 (   0.0 sec)
# of grid points (after weights+screening)   ...  15306 (   0.1 sec)
nearest neighbour list constructed           ...    0.0 sec
Grid point re-assignment to atoms done       ...    0.0 sec
Grid point division into batches done        ...    0.0 sec
Reduced shell lists constructed in    0.2 sec

Total number of grid points                  ...    15306
Total number of batches                      ...      254
Average number of points per batch           ...       60
Average number of grid points per atom       ...      510
Average number of shells per batch           ...    92.45 (67.98%)
Average number of basis functions per batch  ...   200.55 (66.85%)
Average number of large shells per batch     ...    68.10 (73.66%)
Average number of large basis fcns per batch ...   146.81 (73.21%)
Maximum spatial batch extension              ...  26.93, 21.64, 17.37 au
Average spatial batch extension              ...   4.14,  4.13,  4.03 au

Overlap Fitting                  UseSFitting ... on
Constructing numerical overlap ... done (      0.1 sec)
Inverting numerical overlap    ... done (      0.0 sec)
Obtaining analytic overlap     ... done (      0.0 sec)
Final contraction and storage  ... done (      0.0 sec)


General Integration Accuracy     IntAcc      ...  4.010
Radial Grid Type                 RadialGrid  ... Gauss-Chebyshev
Angular Grid (max. acc.)         AngularGrid ... Lebedev-110
Angular grid pruning method      GridPruning ... 3 (G Style)
Weight generation scheme         WeightScheme... Becke
Basis function cutoff            BFCut       ...    1.0000e-11
Integration weight cutoff        WCut        ...    1.0000e-14
Grids for H and He will be reduced by one unit

# of grid points (after initial pruning)     ...  31144 (   0.0 sec)
# of grid points (after weights+screening)   ...  27912 (   0.2 sec)
nearest neighbour list constructed           ...    0.0 sec
Grid point re-assignment to atoms done       ...    0.0 sec
Grid point division into batches done        ...    0.0 sec
Reduced shell lists constructed in    0.4 sec

Total number of grid points                  ...    27912
Total number of batches                      ...      448
Average number of points per batch           ...       62
Average number of grid points per atom       ...      930
Average number of shells per batch           ...    89.80 (66.03%)
Average number of basis functions per batch  ...   194.61 (64.87%)
Average number of large shells per batch     ...    66.02 (73.51%)
Average number of large basis fcns per batch ...   142.06 (73.00%)
Maximum spatial batch extension              ...  28.38, 20.94, 21.17 au
Average spatial batch extension              ...   3.56,  3.59,  3.57 au

Overlap Fitting                  UseSFitting ... on
Constructing numerical overlap ... done (      0.2 sec)
Inverting numerical overlap    ... done (      0.0 sec)
Obtaining analytic overlap     ... done (      0.0 sec)
Final contraction and storage  ... done (      0.0 sec)

Time for X-Grid setup             =    1.801 sec

     ****MaxIter==0 has been chosen - skipping the SCF****

!!!!!!!!!!!!!!!!!!!!!!!!!!!!!!!!!!!!!!!!!!!!!!!!!!!!!!!!!!!
!! SERIOUS WARNING: The orbitals and populations did NOT !!
!!                  come from a CONVERGED calculation    !!
!!!!!!!!!!!!!!!!!!!!!!!!!!!!!!!!!!!!!!!!!!!!!!!!!!!!!!!!!!!

THE WAVEFUNCTION AND DENSITY WILL STILL BE STORED BUT BE CAREFUL
MAKE SURE THAT WHAT YOU INPUT MAKES ACTUALLY SENSE!

             **** DENSITY FILE WAS UPDATED (Mo-TAEA-NH3_0_2_UHF_def2-tzvpp_def2-svp.rot.scfp) ****
----------------
ORBITAL ENERGIES
----------------
                 SPIN UP ORBITALS
  NO   OCC          E(Eh)            E(eV) 
   0   1.0000     -15.602722      -424.5717 
   1   1.0000     -15.573942      -423.7885 
   2   1.0000     -15.477901      -421.1751 
   3   1.0000     -15.474976      -421.0955 
   4   1.0000     -15.474831      -421.0916 
   5   1.0000     -11.253138      -306.2134 
   6   1.0000     -11.251689      -306.1740 
   7   1.0000     -11.250818      -306.1503 
   8   1.0000     -11.235632      -305.7371 
   9   1.0000     -11.235343      -305.7292 
  10   1.0000     -11.231997      -305.6382 
  11   1.0000      -2.988264       -81.3148 
  12   1.0000      -1.860603       -50.6296 
  13   1.0000      -1.852929       -50.4208 
  14   1.0000      -1.812602       -49.3234 
  15   1.0000      -1.209340       -32.9078 
  16   1.0000      -1.172411       -31.9029 
  17   1.0000      -1.084522       -29.5113 
  18   1.0000      -1.081188       -29.4206 
  19   1.0000      -1.065391       -28.9908 
  20   1.0000      -0.944505       -25.7013 
  21   1.0000      -0.942753       -25.6536 
  22   1.0000      -0.873623       -23.7725 
  23   1.0000      -0.784646       -21.3513 
  24   1.0000      -0.782810       -21.3013 
  25   1.0000      -0.745568       -20.2879 
  26   1.0000      -0.671844       -18.2818 
  27   1.0000      -0.669382       -18.2148 
  28   1.0000      -0.640309       -17.4237 
  29   1.0000      -0.637547       -17.3485 
  30   1.0000      -0.636102       -17.3092 
  31   1.0000      -0.611929       -16.6514 
  32   1.0000      -0.605529       -16.4773 
  33   1.0000      -0.571273       -15.5451 
  34   1.0000      -0.541752       -14.7418 
  35   1.0000      -0.536180       -14.5902 
  36   1.0000      -0.530517       -14.4361 
  37   1.0000      -0.511887       -13.9292 
  38   1.0000      -0.499780       -13.5997 
  39   1.0000      -0.493544       -13.4300 
  40   1.0000      -0.488207       -13.2848 
  41   1.0000      -0.475666       -12.9435 
  42   1.0000      -0.474087       -12.9006 
  43   1.0000      -0.452980       -12.3262 
  44   1.0000      -0.426805       -11.6140 
  45   1.0000      -0.425923       -11.5899 
  46   1.0000      -0.405622       -11.0375 
  47   1.0000      -0.335608        -9.1323 
  48   1.0000      -0.333411        -9.0726 
  49   1.0000      -0.297018        -8.0823 
  50   1.0000      -0.275923        -7.5082 
  51   1.0000      -0.245169        -6.6714 
  52   0.0000       0.078716         2.1420 
  53   0.0000       0.119478         3.2512 
  54   0.0000       0.128036         3.4840 
  55   0.0000       0.155910         4.2425 
  56   0.0000       0.208899         5.6844 
  57   0.0000       0.210465         5.7270 
  58   0.0000       0.212488         5.7821 
  59   0.0000       0.232708         6.3323 
  60   0.0000       0.234160         6.3718 
  61   0.0000       0.245957         6.6928 
  62   0.0000       0.248199         6.7538 
  63   0.0000       0.250687         6.8215 
  64   0.0000       0.262523         7.1436 
  65   0.0000       0.263198         7.1620 
  66   0.0000       0.266909         7.2630 
  67   0.0000       0.280429         7.6309 
  68   0.0000       0.281787         7.6678 
  69   0.0000       0.300363         8.1733 
  70   0.0000       0.303029         8.2458 
  71   0.0000       0.305844         8.3224 
  72   0.0000       0.312581         8.5058 
  73   0.0000       0.319394         8.6912 
  74   0.0000       0.342918         9.3313 
  75   0.0000       0.345921         9.4130 
  76   0.0000       0.353399         9.6165 
  77   0.0000       0.358852         9.7649 
  78   0.0000       0.398497        10.8437 
  79   0.0000       0.400513        10.8985 
  80   0.0000       0.424988        11.5645 
  81   0.0000       0.426755        11.6126 
  82   0.0000       0.438449        11.9308 
  83   0.0000       0.439347        11.9552 
  84   0.0000       0.441226        12.0064 
  85   0.0000       0.480096        13.0641 
  86   0.0000       0.482052        13.1173 
  87   0.0000       0.498887        13.5754 
  88   0.0000       0.505020        13.7423 
  89   0.0000       0.515381        14.0242 
  90   0.0000       0.564922        15.3723 
  91   0.0000       0.566439        15.4136 
  92   0.0000       0.609746        16.5920 
  93   0.0000       0.610784        16.6203 
  94   0.0000       0.659728        17.9521 
  95   0.0000       0.660937        17.9850 
  96   0.0000       0.689929        18.7739 
  97   0.0000       0.733040        19.9470 
  98   0.0000       0.741332        20.1727 
  99   0.0000       0.750245        20.4152 
 100   0.0000       0.762423        20.7466 
 101   0.0000       0.777740        21.1634 
 102   0.0000       0.781825        21.2745 
 103   0.0000       0.789890        21.4940 
 104   0.0000       0.810840        22.0641 
 105   0.0000       0.819137        22.2898 
 106   0.0000       0.843066        22.9410 
 107   0.0000       0.844222        22.9725 
 108   0.0000       0.853526        23.2256 
 109   0.0000       0.857062        23.3219 
 110   0.0000       0.863625        23.5004 
 111   0.0000       0.871389        23.7117 
 112   0.0000       0.875289        23.8178 
 113   0.0000       0.904559        24.6143 
 114   0.0000       0.909450        24.7474 
 115   0.0000       0.910535        24.7769 
 116   0.0000       0.917954        24.9788 
 117   0.0000       0.921335        25.0708 
 118   0.0000       0.923397        25.1269 
 119   0.0000       0.925250        25.1773 
 120   0.0000       0.928813        25.2743 
 121   0.0000       0.933670        25.4065 
 122   0.0000       0.950777        25.8720 
 123   0.0000       0.963497        26.2181 
 124   0.0000       0.968694        26.3595 
 125   0.0000       0.986221        26.8364 
 126   0.0000       0.996747        27.1229 
 127   0.0000       1.001890        27.2628 
 128   0.0000       1.007878        27.4258 
 129   0.0000       1.012761        27.5586 
 130   0.0000       1.022631        27.8272 
 131   0.0000       1.071794        29.1650 
 132   0.0000       1.071990        29.1703 
 133   0.0000       1.083040        29.4710 
 134   0.0000       1.115035        30.3417 
 135   0.0000       1.119049        30.4509 
 136   0.0000       1.130120        30.7521 
 137   0.0000       1.149911        31.2907 
 138   0.0000       1.164203        31.6796 
 139   0.0000       1.176854        32.0238 
 140   0.0000       1.183337        32.2002 
 141   0.0000       1.225143        33.3378 
 142   0.0000       1.247871        33.9563 
 143   0.0000       1.264896        34.4196 
 144   0.0000       1.286099        34.9965 
 145   0.0000       1.302695        35.4481 
 146   0.0000       1.307288        35.5731 
 147   0.0000       1.316354        35.8198 
 148   0.0000       1.350014        36.7358 
 149   0.0000       1.351899        36.7871 
 150   0.0000       1.388818        37.7917 
 151   0.0000       1.398275        38.0490 
 152   0.0000       1.401644        38.1407 
 153   0.0000       1.417792        38.5801 
 154   0.0000       1.428387        38.8684 
 155   0.0000       1.436082        39.0778 
 156   0.0000       1.462701        39.8021 
 157   0.0000       1.493883        40.6506 
 158   0.0000       1.511483        41.1295 
 159   0.0000       1.532287        41.6956 
 160   0.0000       1.545157        42.0458 
 161   0.0000       1.550663        42.1957 
 162   0.0000       1.554699        42.3055 
 163   0.0000       1.568412        42.6786 
 164   0.0000       1.586871        43.1810 
 165   0.0000       1.608526        43.7702 
 166   0.0000       1.623293        44.1721 
 167   0.0000       1.659087        45.1460 
 168   0.0000       1.683672        45.8150 
 169   0.0000       1.687277        45.9131 
 170   0.0000       1.701771        46.3075 
 171   0.0000       1.739389        47.3312 
 172   0.0000       1.746774        47.5321 
 173   0.0000       1.760033        47.8929 
 174   0.0000       1.806405        49.1548 
 175   0.0000       1.821986        49.5787 
 176   0.0000       1.833681        49.8970 
 177   0.0000       1.842515        50.1374 
 178   0.0000       1.875394        51.0321 
 179   0.0000       1.893893        51.5355 
 180   0.0000       1.914671        52.1008 
 181   0.0000       1.922765        52.3211 
 182   0.0000       1.928709        52.4828 
 183   0.0000       1.939006        52.7630 
 184   0.0000       1.987291        54.0769 
 185   0.0000       1.994717        54.2790 
 186   0.0000       2.017633        54.9026 
 187   0.0000       2.029700        55.2310 
 188   0.0000       2.036604        55.4188 
 189   0.0000       2.042834        55.5884 
 190   0.0000       2.051918        55.8355 
 191   0.0000       2.064025        56.1650 
 192   0.0000       2.077954        56.5440 
 193   0.0000       2.087929        56.8154 
 194   0.0000       2.091676        56.9174 
 195   0.0000       2.097602        57.0787 
 196   0.0000       2.113151        57.5018 
 197   0.0000       2.116517        57.5934 
 198   0.0000       2.120933        57.7135 
 199   0.0000       2.147867        58.4464 
 200   0.0000       2.151628        58.5488 
 201   0.0000       2.180969        59.3472 
 202   0.0000       2.185589        59.4729 
 203   0.0000       2.192580        59.6631 
 204   0.0000       2.196031        59.7571 
 205   0.0000       2.205648        60.0187 
 206   0.0000       2.208532        60.0972 
 207   0.0000       2.229583        60.6700 
 208   0.0000       2.232387        60.7463 
 209   0.0000       2.238599        60.9154 
 210   0.0000       2.243397        61.0459 
 211   0.0000       2.246616        61.1335 
 212   0.0000       2.257952        61.4420 
 213   0.0000       2.280047        62.0432 
 214   0.0000       2.294763        62.4437 
 215   0.0000       2.302499        62.6542 
 216   0.0000       2.324791        63.2608 
 217   0.0000       2.363654        64.3183 
 218   0.0000       2.366026        64.3828 
 219   0.0000       2.374888        64.6240 
 220   0.0000       2.379851        64.7590 
 221   0.0000       2.400610        65.3239 
 222   0.0000       2.420870        65.8752 
 223   0.0000       2.443058        66.4790 
 224   0.0000       2.453948        66.7753 
 225   0.0000       2.496999        67.9468 
 226   0.0000       2.507761        68.2396 
 227   0.0000       2.523553        68.6694 
 228   0.0000       2.525712        68.7281 
 229   0.0000       2.548989        69.3615 
 230   0.0000       2.564202        69.7755 
 231   0.0000       2.589999        70.4775 
 232   0.0000       2.604996        70.8855 
 233   0.0000       2.625883        71.4539 
 234   0.0000       2.677968        72.8712 
 235   0.0000       2.689813        73.1935 
 236   0.0000       2.700744        73.4910 
 237   0.0000       2.702852        73.5483 
 238   0.0000       2.722424        74.0809 
 239   0.0000       2.724102        74.1266 
 240   0.0000       2.743418        74.6522 
 241   0.0000       2.746641        74.7399 
 242   0.0000       2.758225        75.0551 
 243   0.0000       2.764717        75.2318 
 244   0.0000       2.796897        76.1074 
 245   0.0000       2.812192        76.5236 
 246   0.0000       2.814768        76.5937 
 247   0.0000       2.851853        77.6029 
 248   0.0000       2.874619        78.2223 
 249   0.0000       2.885162        78.5093 
 250   0.0000       2.921773        79.5055 
 251   0.0000       2.946381        80.1751 
 252   0.0000       2.960803        80.5675 
 253   0.0000       2.971881        80.8690 
 254   0.0000       2.981488        81.1304 
 255   0.0000       2.994165        81.4754 
 256   0.0000       3.005276        81.7777 
 257   0.0000       3.042623        82.7940 
 258   0.0000       3.047967        82.9394 
 259   0.0000       3.071737        83.5862 
 260   0.0000       3.084693        83.9388 
 261   0.0000       3.087619        84.0184 
 262   0.0000       3.095794        84.2408 
 263   0.0000       3.136346        85.3443 
 264   0.0000       3.142139        85.5020 
 265   0.0000       3.154408        85.8358 
 266   0.0000       3.205393        87.2232 
 267   0.0000       3.205902        87.2370 
 268   0.0000       3.221815        87.6700 
 269   0.0000       3.228866        87.8619 
 270   0.0000       3.252963        88.5176 
 271   0.0000       3.264470        88.8308 
 272   0.0000       3.285758        89.4100 
 273   0.0000       3.295797        89.6832 
 274   0.0000       3.319820        90.3369 
 275   0.0000       3.336532        90.7917 
 276   0.0000       3.344624        91.0118 
 277   0.0000       3.358757        91.3964 
 278   0.0000       3.370033        91.7032 
 279   0.0000       3.379351        91.9568 
 280   0.0000       3.396402        92.4208 
 281   0.0000       3.420017        93.0634 
 282   0.0000       3.431733        93.3822 
 283   0.0000       3.456441        94.0545 
 284   0.0000       3.462477        94.2188 
 285   0.0000       3.520942        95.8097 
 286   0.0000       3.551619        96.6445 
 287   0.0000       3.553082        96.6843 
 288   0.0000       3.572592        97.2152 
 289   0.0000       3.666680        99.7754 
 290   0.0000       3.718653       101.1897 
 291   0.0000       3.721304       101.2618 
 292   0.0000       3.801511       103.4444 
 293   0.0000       3.811585       103.7185 
 294   0.0000       3.830620       104.2365 
 295   0.0000       3.865297       105.1801 
 296   0.0000       3.916414       106.5711 
 297   0.0000       4.039610       109.9234 
 298   0.0000      24.941750       678.6995 
 299   0.0000      85.985145      2339.7747 

                 SPIN DOWN ORBITALS
  NO   OCC          E(Eh)            E(eV) 
   0   1.0000     -15.602722      -424.5717 
   1   1.0000     -15.573942      -423.7885 
   2   1.0000     -15.477901      -421.1751 
   3   1.0000     -15.474976      -421.0955 
   4   1.0000     -15.474831      -421.0916 
   5   1.0000     -11.253138      -306.2134 
   6   1.0000     -11.251689      -306.1740 
   7   1.0000     -11.250818      -306.1503 
   8   1.0000     -11.235632      -305.7371 
   9   1.0000     -11.235343      -305.7292 
  10   1.0000     -11.231997      -305.6382 
  11   1.0000      -2.988264       -81.3148 
  12   1.0000      -1.860603       -50.6296 
  13   1.0000      -1.852929       -50.4208 
  14   1.0000      -1.812602       -49.3234 
  15   1.0000      -1.209340       -32.9078 
  16   1.0000      -1.172411       -31.9029 
  17   1.0000      -1.084522       -29.5113 
  18   1.0000      -1.081188       -29.4206 
  19   1.0000      -1.065391       -28.9908 
  20   1.0000      -0.944505       -25.7013 
  21   1.0000      -0.942753       -25.6536 
  22   1.0000      -0.873623       -23.7725 
  23   1.0000      -0.784646       -21.3513 
  24   1.0000      -0.782810       -21.3013 
  25   1.0000      -0.745568       -20.2879 
  26   1.0000      -0.671844       -18.2818 
  27   1.0000      -0.669382       -18.2148 
  28   1.0000      -0.640309       -17.4237 
  29   1.0000      -0.637547       -17.3485 
  30   1.0000      -0.636102       -17.3092 
  31   1.0000      -0.611929       -16.6514 
  32   1.0000      -0.605529       -16.4773 
  33   1.0000      -0.571273       -15.5451 
  34   1.0000      -0.541752       -14.7418 
  35   1.0000      -0.536180       -14.5902 
  36   1.0000      -0.530517       -14.4361 
  37   1.0000      -0.511887       -13.9292 
  38   1.0000      -0.499780       -13.5997 
  39   1.0000      -0.493544       -13.4300 
  40   1.0000      -0.488207       -13.2848 
  41   1.0000      -0.475666       -12.9435 
  42   1.0000      -0.474087       -12.9006 
  43   1.0000      -0.452980       -12.3262 
  44   1.0000      -0.426805       -11.6140 
  45   1.0000      -0.425923       -11.5899 
  46   1.0000      -0.405622       -11.0375 
  47   1.0000      -0.335608        -9.1323 
  48   1.0000      -0.333411        -9.0726 
  49   1.0000      -0.297018        -8.0823 
  50   1.0000      -0.275923        -7.5082 
  51   0.0000      -0.245169        -6.6714 
  52   0.0000       0.078716         2.1420 
  53   0.0000       0.119478         3.2512 
  54   0.0000       0.128036         3.4840 
  55   0.0000       0.155910         4.2425 
  56   0.0000       0.208899         5.6844 
  57   0.0000       0.210465         5.7270 
  58   0.0000       0.212488         5.7821 
  59   0.0000       0.232708         6.3323 
  60   0.0000       0.234160         6.3718 
  61   0.0000       0.245957         6.6928 
  62   0.0000       0.248199         6.7538 
  63   0.0000       0.250687         6.8215 
  64   0.0000       0.262523         7.1436 
  65   0.0000       0.263198         7.1620 
  66   0.0000       0.266909         7.2630 
  67   0.0000       0.280429         7.6309 
  68   0.0000       0.281787         7.6678 
  69   0.0000       0.300363         8.1733 
  70   0.0000       0.303029         8.2458 
  71   0.0000       0.305844         8.3224 
  72   0.0000       0.312581         8.5058 
  73   0.0000       0.319394         8.6912 
  74   0.0000       0.342918         9.3313 
  75   0.0000       0.345921         9.4130 
  76   0.0000       0.353399         9.6165 
  77   0.0000       0.358852         9.7649 
  78   0.0000       0.398497        10.8437 
  79   0.0000       0.400513        10.8985 
  80   0.0000       0.424988        11.5645 
  81   0.0000       0.426755        11.6126 
  82   0.0000       0.438449        11.9308 
  83   0.0000       0.439347        11.9552 
  84   0.0000       0.441226        12.0064 
  85   0.0000       0.480096        13.0641 
  86   0.0000       0.482052        13.1173 
  87   0.0000       0.498887        13.5754 
  88   0.0000       0.505020        13.7423 
  89   0.0000       0.515381        14.0242 
  90   0.0000       0.564922        15.3723 
  91   0.0000       0.566439        15.4136 
  92   0.0000       0.609746        16.5920 
  93   0.0000       0.610784        16.6203 
  94   0.0000       0.659728        17.9521 
  95   0.0000       0.660937        17.9850 
  96   0.0000       0.689929        18.7739 
  97   0.0000       0.733040        19.9470 
  98   0.0000       0.741332        20.1727 
  99   0.0000       0.750245        20.4152 
 100   0.0000       0.762423        20.7466 
 101   0.0000       0.777740        21.1634 
 102   0.0000       0.781825        21.2745 
 103   0.0000       0.789890        21.4940 
 104   0.0000       0.810840        22.0641 
 105   0.0000       0.819137        22.2898 
 106   0.0000       0.843066        22.9410 
 107   0.0000       0.844222        22.9725 
 108   0.0000       0.853526        23.2256 
 109   0.0000       0.857062        23.3219 
 110   0.0000       0.863625        23.5004 
 111   0.0000       0.871389        23.7117 
 112   0.0000       0.875289        23.8178 
 113   0.0000       0.904559        24.6143 
 114   0.0000       0.909450        24.7474 
 115   0.0000       0.910535        24.7769 
 116   0.0000       0.917954        24.9788 
 117   0.0000       0.921335        25.0708 
 118   0.0000       0.923397        25.1269 
 119   0.0000       0.925250        25.1773 
 120   0.0000       0.928813        25.2743 
 121   0.0000       0.933670        25.4065 
 122   0.0000       0.950777        25.8720 
 123   0.0000       0.963497        26.2181 
 124   0.0000       0.968694        26.3595 
 125   0.0000       0.986221        26.8364 
 126   0.0000       0.996747        27.1229 
 127   0.0000       1.001890        27.2628 
 128   0.0000       1.007878        27.4258 
 129   0.0000       1.012761        27.5586 
 130   0.0000       1.022631        27.8272 
 131   0.0000       1.071794        29.1650 
 132   0.0000       1.071990        29.1703 
 133   0.0000       1.083040        29.4710 
 134   0.0000       1.115035        30.3417 
 135   0.0000       1.119049        30.4509 
 136   0.0000       1.130120        30.7521 
 137   0.0000       1.149911        31.2907 
 138   0.0000       1.164203        31.6796 
 139   0.0000       1.176854        32.0238 
 140   0.0000       1.183337        32.2002 
 141   0.0000       1.225143        33.3378 
 142   0.0000       1.247871        33.9563 
 143   0.0000       1.264896        34.4196 
 144   0.0000       1.286099        34.9965 
 145   0.0000       1.302695        35.4481 
 146   0.0000       1.307288        35.5731 
 147   0.0000       1.316354        35.8198 
 148   0.0000       1.350014        36.7358 
 149   0.0000       1.351899        36.7871 
 150   0.0000       1.388818        37.7917 
 151   0.0000       1.398275        38.0490 
 152   0.0000       1.401644        38.1407 
 153   0.0000       1.417792        38.5801 
 154   0.0000       1.428387        38.8684 
 155   0.0000       1.436082        39.0778 
 156   0.0000       1.462701        39.8021 
 157   0.0000       1.493883        40.6506 
 158   0.0000       1.511483        41.1295 
 159   0.0000       1.532287        41.6956 
 160   0.0000       1.545157        42.0458 
 161   0.0000       1.550663        42.1957 
 162   0.0000       1.554699        42.3055 
 163   0.0000       1.568412        42.6786 
 164   0.0000       1.586871        43.1810 
 165   0.0000       1.608526        43.7702 
 166   0.0000       1.623293        44.1721 
 167   0.0000       1.659087        45.1460 
 168   0.0000       1.683672        45.8150 
 169   0.0000       1.687277        45.9131 
 170   0.0000       1.701771        46.3075 
 171   0.0000       1.739389        47.3312 
 172   0.0000       1.746774        47.5321 
 173   0.0000       1.760033        47.8929 
 174   0.0000       1.806405        49.1548 
 175   0.0000       1.821986        49.5787 
 176   0.0000       1.833681        49.8970 
 177   0.0000       1.842515        50.1374 
 178   0.0000       1.875394        51.0321 
 179   0.0000       1.893893        51.5355 
 180   0.0000       1.914671        52.1008 
 181   0.0000       1.922765        52.3211 
 182   0.0000       1.928709        52.4828 
 183   0.0000       1.939006        52.7630 
 184   0.0000       1.987291        54.0769 
 185   0.0000       1.994717        54.2790 
 186   0.0000       2.017633        54.9026 
 187   0.0000       2.029700        55.2310 
 188   0.0000       2.036604        55.4188 
 189   0.0000       2.042834        55.5884 
 190   0.0000       2.051918        55.8355 
 191   0.0000       2.064025        56.1650 
 192   0.0000       2.077954        56.5440 
 193   0.0000       2.087929        56.8154 
 194   0.0000       2.091676        56.9174 
 195   0.0000       2.097602        57.0787 
 196   0.0000       2.113151        57.5018 
 197   0.0000       2.116517        57.5934 
 198   0.0000       2.120933        57.7135 
 199   0.0000       2.147867        58.4464 
 200   0.0000       2.151628        58.5488 
 201   0.0000       2.180969        59.3472 
 202   0.0000       2.185589        59.4729 
 203   0.0000       2.192580        59.6631 
 204   0.0000       2.196031        59.7571 
 205   0.0000       2.205648        60.0187 
 206   0.0000       2.208532        60.0972 
 207   0.0000       2.229583        60.6700 
 208   0.0000       2.232387        60.7463 
 209   0.0000       2.238599        60.9154 
 210   0.0000       2.243397        61.0459 
 211   0.0000       2.246616        61.1335 
 212   0.0000       2.257952        61.4420 
 213   0.0000       2.280047        62.0432 
 214   0.0000       2.294763        62.4437 
 215   0.0000       2.302499        62.6542 
 216   0.0000       2.324791        63.2608 
 217   0.0000       2.363654        64.3183 
 218   0.0000       2.366026        64.3828 
 219   0.0000       2.374888        64.6240 
 220   0.0000       2.379851        64.7590 
 221   0.0000       2.400610        65.3239 
 222   0.0000       2.420870        65.8752 
 223   0.0000       2.443058        66.4790 
 224   0.0000       2.453948        66.7753 
 225   0.0000       2.496999        67.9468 
 226   0.0000       2.507761        68.2396 
 227   0.0000       2.523553        68.6694 
 228   0.0000       2.525712        68.7281 
 229   0.0000       2.548989        69.3615 
 230   0.0000       2.564202        69.7755 
 231   0.0000       2.589999        70.4775 
 232   0.0000       2.604996        70.8855 
 233   0.0000       2.625883        71.4539 
 234   0.0000       2.677968        72.8712 
 235   0.0000       2.689813        73.1935 
 236   0.0000       2.700744        73.4910 
 237   0.0000       2.702852        73.5483 
 238   0.0000       2.722424        74.0809 
 239   0.0000       2.724102        74.1266 
 240   0.0000       2.743418        74.6522 
 241   0.0000       2.746641        74.7399 
 242   0.0000       2.758225        75.0551 
 243   0.0000       2.764717        75.2318 
 244   0.0000       2.796897        76.1074 
 245   0.0000       2.812192        76.5236 
 246   0.0000       2.814768        76.5937 
 247   0.0000       2.851853        77.6029 
 248   0.0000       2.874619        78.2223 
 249   0.0000       2.885162        78.5093 
 250   0.0000       2.921773        79.5055 
 251   0.0000       2.946381        80.1751 
 252   0.0000       2.960803        80.5675 
 253   0.0000       2.971881        80.8690 
 254   0.0000       2.981488        81.1304 
 255   0.0000       2.994165        81.4754 
 256   0.0000       3.005276        81.7777 
 257   0.0000       3.042623        82.7940 
 258   0.0000       3.047967        82.9394 
 259   0.0000       3.071737        83.5862 
 260   0.0000       3.084693        83.9388 
 261   0.0000       3.087619        84.0184 
 262   0.0000       3.095794        84.2408 
 263   0.0000       3.136346        85.3443 
 264   0.0000       3.142139        85.5020 
 265   0.0000       3.154408        85.8358 
 266   0.0000       3.205393        87.2232 
 267   0.0000       3.205902        87.2370 
 268   0.0000       3.221815        87.6700 
 269   0.0000       3.228866        87.8619 
 270   0.0000       3.252963        88.5176 
 271   0.0000       3.264470        88.8308 
 272   0.0000       3.285758        89.4100 
 273   0.0000       3.295797        89.6832 
 274   0.0000       3.319820        90.3369 
 275   0.0000       3.336532        90.7917 
 276   0.0000       3.344624        91.0118 
 277   0.0000       3.358757        91.3964 
 278   0.0000       3.370033        91.7032 
 279   0.0000       3.379351        91.9568 
 280   0.0000       3.396402        92.4208 
 281   0.0000       3.420017        93.0634 
 282   0.0000       3.431733        93.3822 
 283   0.0000       3.456441        94.0545 
 284   0.0000       3.462477        94.2188 
 285   0.0000       3.520942        95.8097 
 286   0.0000       3.551619        96.6445 
 287   0.0000       3.553082        96.6843 
 288   0.0000       3.572592        97.2152 
 289   0.0000       3.666680        99.7754 
 290   0.0000       3.718653       101.1897 
 291   0.0000       3.721304       101.2618 
 292   0.0000       3.801511       103.4444 
 293   0.0000       3.811585       103.7185 
 294   0.0000       3.830620       104.2365 
 295   0.0000       3.865297       105.1801 
 296   0.0000       3.916414       106.5711 
 297   0.0000       4.039610       109.9234 
 298   0.0000      24.941750       678.6995 
 299   0.0000      85.985145      2339.7747 

                    ********************************
                    * MULLIKEN POPULATION ANALYSIS *
                    ********************************

--------------------------------------------
MULLIKEN ATOMIC CHARGES AND SPIN POPULATIONS
--------------------------------------------
   0 Mo:    0.867703    0.968894
   1 N :   -0.627156    0.001543
   2 N :   -0.648137    0.003284
   3 N :   -0.659261    0.003892
   4 N :   -0.790387    0.000684
   5 N :   -0.295822    0.000875
   6 H :    0.163086    0.001558
   7 H :    0.161157    0.001367
   8 H :    0.157981    0.000028
   9 C :    0.208955    0.000069
  10 H :    0.008174    0.000006
  11 H :    0.003945    0.000041
  12 C :    0.153889   -0.000069
  13 H :    0.025753    0.000027
  14 H :    0.042396    0.000048
  15 C :    0.210412    0.003335
  16 H :    0.007118    0.000448
  17 H :    0.012236    0.000265
  18 C :    0.144756    0.001296
  19 H :    0.028543    0.000215
  20 H :    0.051738    0.000045
  21 C :    0.214678    0.002085
  22 H :    0.010846    0.000372
  23 H :    0.014320    0.000074
  24 C :    0.139104    0.002656
  25 H :    0.026606    0.000383
  26 H :    0.044836    0.000049
  27 H :    0.108390    0.002932
  28 H :    0.103007    0.000084
  29 H :    0.111134    0.003515
Sum of atomic charges         :    0.0000000
Sum of atomic spin populations:    1.0000000

-----------------------------------------------------
MULLIKEN REDUCED ORBITAL CHARGES AND SPIN POPULATIONS
-----------------------------------------------------
CHARGE
  0 Mos       :     2.274557  s :     2.274557
      pz      :     2.107655  p :     6.471235
      px      :     2.181593
      py      :     2.181986
      dz2     :     0.806807  d :     4.230829
      dxz     :     1.202026
      dyz     :     0.986058
      dx2y2   :     0.577527
      dxy     :     0.658411
      f0      :     0.023314  f :     0.142711
      f+1     :     0.017222
      f-1     :     0.017877
      f+2     :     0.012319
      f-2     :     0.012637
      f+3     :     0.030005
      f-3     :     0.029337
      g0      :     0.001365  g :     0.012965
      g+1     :     0.001486
      g-1     :     0.001242
      g+2     :     0.000952
      g-2     :     0.001056
      g+3     :     0.000946
      g-3     :     0.001188
      g+4     :     0.002682
      g-4     :     0.002049
  1 N s       :     3.558074  s :     3.558074
      pz      :     1.140734  p :     4.050406
      px      :     1.249596
      py      :     1.660076
      dz2     :     0.008540  d :     0.018677
      dxz     :     0.004106
      dyz     :     0.001864
      dx2y2   :     0.002770
      dxy     :     0.001396
  2 N s       :     3.564269  s :     3.564269
      pz      :     1.193226  p :     4.066526
      px      :     1.559130
      py      :     1.314170
      dz2     :     0.005011  d :     0.017342
      dxz     :     0.003667
      dyz     :     0.004203
      dx2y2   :     0.003537
      dxy     :     0.000924
  3 N s       :     3.552785  s :     3.552785
      pz      :     1.148998  p :     4.089636
      px      :     1.635153
      py      :     1.305485
      dz2     :     0.002142  d :     0.016840
      dxz     :     0.002048
      dyz     :     0.009276
      dx2y2   :     0.001561
      dxy     :     0.001813
  4 N s       :     3.680383  s :     3.680383
      pz      :     1.595737  p :     4.078798
      px      :     1.243986
      py      :     1.239074
      dz2     :     0.004285  d :     0.031207
      dxz     :     0.006538
      dyz     :     0.004769
      dx2y2   :     0.009761
      dxy     :     0.005853
  5 N s       :     3.422442  s :     3.422442
      pz      :     1.552818  p :     3.853876
      px      :     1.148063
      py      :     1.152995
      dz2     :     0.001499  d :     0.019504
      dxz     :     0.003497
      dyz     :     0.006783
      dx2y2   :     0.002560
      dxy     :     0.005166
  6 H s       :     0.789732  s :     0.789732
      pz      :     0.012280  p :     0.047182
      px      :     0.019264
      py      :     0.015638
  7 H s       :     0.791568  s :     0.791568
      pz      :     0.015209  p :     0.047275
      px      :     0.007962
      py      :     0.024104
  8 H s       :     0.795855  s :     0.795855
      pz      :     0.009456  p :     0.046164
      px      :     0.024830
      py      :     0.011877
  9 C s       :     3.000592  s :     3.000592
      pz      :     0.820687  p :     2.730353
      px      :     0.937615
      py      :     0.972052
      dz2     :     0.016230  d :     0.060099
      dxz     :     0.012686
      dyz     :     0.013352
      dx2y2   :     0.007846
      dxy     :     0.009986
 10 H s       :     0.968851  s :     0.968851
      pz      :     0.005169  p :     0.022975
      px      :     0.007292
      py      :     0.010513
 11 H s       :     0.973800  s :     0.973800
      pz      :     0.002384  p :     0.022255
      px      :     0.005948
      py      :     0.013923
 12 C s       :     3.039783  s :     3.039783
      pz      :     0.885539  p :     2.752150
      px      :     0.903630
      py      :     0.962980
      dz2     :     0.012380  d :     0.054178
      dxz     :     0.011990
      dyz     :     0.008246
      dx2y2   :     0.011265
      dxy     :     0.010298
 13 H s       :     0.951801  s :     0.951801
      pz      :     0.014708  p :     0.022446
      px      :     0.002300
      py      :     0.005437
 14 H s       :     0.934386  s :     0.934386
      pz      :     0.002978  p :     0.023219
      px      :     0.003662
      py      :     0.016579
 15 C s       :     2.995208  s :     2.995208
      pz      :     0.825008  p :     2.733100
      px      :     0.956808
      py      :     0.951283
      dz2     :     0.014980  d :     0.061281
      dxz     :     0.010925
      dyz     :     0.016639
      dx2y2   :     0.013805
      dxy     :     0.004932
 16 H s       :     0.970559  s :     0.970559
      pz      :     0.005880  p :     0.022323
      px      :     0.005552
      py      :     0.010891
 17 H s       :     0.964981  s :     0.964981
      pz      :     0.002283  p :     0.022783
      px      :     0.016805
      py      :     0.003695
 18 C s       :     3.044870  s :     3.044870
      pz      :     0.980216  p :     2.755493
      px      :     0.768039
      py      :     1.007238
      dz2     :     0.013272  d :     0.054881
      dxz     :     0.008058
      dyz     :     0.007964
      dx2y2   :     0.013131
      dxy     :     0.012455
 19 H s       :     0.949025  s :     0.949025
      pz      :     0.016825  p :     0.022432
      px      :     0.002709
      py      :     0.002899
 20 H s       :     0.925000  s :     0.925000
      pz      :     0.006083  p :     0.023262
      px      :     0.007478
      py      :     0.009701
 21 C s       :     2.999770  s :     2.999770
      pz      :     0.831963  p :     2.724640
      px      :     0.971342
      py      :     0.921335
      dz2     :     0.016361  d :     0.060913
      dxz     :     0.010489
      dyz     :     0.012773
      dx2y2   :     0.015365
      dxy     :     0.005924
 22 H s       :     0.966131  s :     0.966131
      pz      :     0.002604  p :     0.023023
      px      :     0.004731
      py      :     0.015688
 23 H s       :     0.963368  s :     0.963368
      pz      :     0.002205  p :     0.022312
      px      :     0.017001
      py      :     0.003106
 24 C s       :     3.046714  s :     3.046714
      pz      :     1.003528  p :     2.759528
      px      :     1.028764
      py      :     0.727236
      dz2     :     0.011317  d :     0.054654
      dxz     :     0.008236
      dyz     :     0.011755
      dx2y2   :     0.017933
      dxy     :     0.005413
 25 H s       :     0.951106  s :     0.951106
      pz      :     0.012125  p :     0.022288
      px      :     0.007003
      py      :     0.003159
 26 H s       :     0.932030  s :     0.932030
      pz      :     0.003181  p :     0.023134
      px      :     0.017359
      py      :     0.002594
 27 H s       :     0.846635  s :     0.846635
      pz      :     0.018183  p :     0.044975
      px      :     0.013006
      py      :     0.013786
 28 H s       :     0.853061  s :     0.853061
      pz      :     0.009396  p :     0.043933
      px      :     0.021325
      py      :     0.013212
 29 H s       :     0.844092  s :     0.844092
      pz      :     0.012431  p :     0.044774
      px      :     0.011112
      py      :     0.021231

SPIN
  0 Mos       :     0.000023  s :     0.000023
      pz      :     0.000063  p :     0.004818
      px      :     0.001040
      py      :     0.003715
      dz2     :     0.022237  d :     0.964025
      dxz     :     0.185758
      dyz     :     0.684255
      dx2y2   :     0.069603
      dxy     :     0.002173
      f0      :    -0.000002  f :    -0.000031
      f+1     :     0.000000
      f-1     :    -0.000023
      f+2     :    -0.000010
      f-2     :    -0.000023
      f+3     :     0.000021
      f-3     :     0.000007
      g0      :    -0.000000  g :     0.000058
      g+1     :    -0.000000
      g-1     :    -0.000001
      g+2     :     0.000000
      g-2     :     0.000001
      g+3     :     0.000056
      g-3     :     0.000007
      g+4     :    -0.000009
      g-4     :     0.000003
  1 N s       :     0.000007  s :     0.000007
      pz      :     0.000003  p :     0.001420
      px      :     0.000075
      py      :     0.001342
      dz2     :     0.000019  d :     0.000116
      dxz     :     0.000000
      dyz     :     0.000010
      dx2y2   :     0.000023
      dxy     :     0.000065
  2 N s       :     0.000016  s :     0.000016
      pz      :    -0.000904  p :     0.001943
      px      :     0.002780
      py      :     0.000066
      dz2     :     0.000126  d :     0.001325
      dxz     :     0.000702
      dyz     :     0.000314
      dx2y2   :     0.000103
      dxy     :     0.000081
  3 N s       :     0.000115  s :     0.000115
      pz      :    -0.000807  p :     0.002673
      px      :     0.003296
      py      :     0.000185
      dz2     :     0.000005  d :     0.001104
      dxz     :     0.000093
      dyz     :     0.000980
      dx2y2   :     0.000010
      dxy     :     0.000016
  4 N s       :     0.000000  s :     0.000000
      pz      :    -0.000001  p :    -0.000051
      px      :     0.000021
      py      :    -0.000070
      dz2     :     0.000010  d :     0.000734
      dxz     :     0.000109
      dyz     :     0.000394
      dx2y2   :     0.000199
      dxy     :     0.000023
  5 N s       :     0.000001  s :     0.000001
      pz      :    -0.000007  p :    -0.000027
      px      :     0.000004
      py      :    -0.000024
      dz2     :     0.000028  d :     0.000901
      dxz     :     0.000184
      dyz     :     0.000675
      dx2y2   :     0.000013
      dxy     :     0.000001
  6 H s       :     0.001512  s :     0.001512
      pz      :     0.000013  p :     0.000046
      px      :     0.000034
      py      :    -0.000001
  7 H s       :     0.001314  s :     0.001314
      pz      :     0.000010  p :     0.000052
      px      :     0.000018
      py      :     0.000025
  8 H s       :     0.000002  s :     0.000002
      pz      :     0.000001  p :     0.000026
      px      :     0.000005
      py      :     0.000020
  9 C s       :     0.000018  s :     0.000018
      pz      :     0.000029  p :     0.000040
      px      :     0.000039
      py      :    -0.000027
      dz2     :     0.000004  d :     0.000011
      dxz     :     0.000003
      dyz     :     0.000000
      dx2y2   :     0.000001
      dxy     :     0.000003
 10 H s       :     0.000006  s :     0.000006
      pz      :    -0.000000  p :    -0.000000
      px      :    -0.000000
      py      :     0.000000
 11 H s       :     0.000040  s :     0.000040
      pz      :     0.000001  p :     0.000001
      px      :     0.000000
      py      :     0.000000
 12 C s       :    -0.000014  s :    -0.000014
      pz      :    -0.000066  p :    -0.000078
      px      :    -0.000011
      py      :    -0.000002
      dz2     :     0.000004  d :     0.000023
      dxz     :    -0.000001
      dyz     :     0.000009
      dx2y2   :     0.000011
      dxy     :     0.000000
 13 H s       :     0.000027  s :     0.000027
      pz      :     0.000000  p :     0.000000
      px      :    -0.000001
      py      :     0.000001
 14 H s       :     0.000045  s :     0.000045
      pz      :     0.000000  p :     0.000003
      px      :    -0.000001
      py      :     0.000003
 15 C s       :    -0.000056  s :    -0.000056
      pz      :     0.003122  p :     0.003380
      px      :     0.000295
      py      :    -0.000037
      dz2     :     0.000005  d :     0.000011
      dxz     :     0.000004
      dyz     :     0.000001
      dx2y2   :     0.000000
      dxy     :     0.000001
 16 H s       :     0.000423  s :     0.000423
      pz      :     0.000020  p :     0.000025
      px      :     0.000005
      py      :    -0.000000
 17 H s       :     0.000255  s :     0.000255
      pz      :     0.000009  p :     0.000010
      px      :     0.000001
      py      :     0.000000
 18 C s       :    -0.000163  s :    -0.000163
      pz      :     0.000086  p :     0.001429
      px      :     0.001074
      py      :     0.000270
      dz2     :     0.000002  d :     0.000029
      dxz     :     0.000018
      dyz     :     0.000006
      dx2y2   :     0.000003
      dxy     :    -0.000000
 19 H s       :     0.000205  s :     0.000205
      pz      :    -0.000000  p :     0.000010
      px      :     0.000008
      py      :     0.000002
 20 H s       :     0.000040  s :     0.000040
      pz      :     0.000000  p :     0.000005
      px      :     0.000005
      py      :     0.000000
 21 C s       :    -0.000216  s :    -0.000216
      pz      :     0.001309  p :     0.002273
      px      :     0.000485
      py      :     0.000478
      dz2     :     0.000001  d :     0.000028
      dxz     :     0.000017
      dyz     :    -0.000001
      dx2y2   :     0.000011
      dxy     :     0.000001
 22 H s       :     0.000356  s :     0.000356
      pz      :     0.000012  p :     0.000016
      px      :     0.000002
      py      :     0.000002
 23 H s       :     0.000067  s :     0.000067
      pz      :     0.000005  p :     0.000008
      px      :     0.000000
      py      :     0.000003
 24 C s       :     0.000094  s :     0.000094
      pz      :     0.000484  p :     0.002497
      px      :    -0.000036
      py      :     0.002049
      dz2     :    -0.000001  d :     0.000064
      dxz     :     0.000013
      dyz     :     0.000033
      dx2y2   :     0.000006
      dxy     :     0.000013
 25 H s       :     0.000375  s :     0.000375
      pz      :    -0.000000  p :     0.000008
      px      :    -0.000000
      py      :     0.000008
 26 H s       :     0.000044  s :     0.000044
      pz      :    -0.000003  p :     0.000005
      px      :     0.000003
      py      :     0.000006
 27 H s       :     0.002864  s :     0.002864
      pz      :    -0.000002  p :     0.000068
      px      :     0.000079
      py      :    -0.000009
 28 H s       :     0.000027  s :     0.000027
      pz      :     0.000001  p :     0.000057
      px      :     0.000004
      py      :     0.000051
 29 H s       :     0.003436  s :     0.003436
      pz      :    -0.000000  p :     0.000080
      px      :     0.000081
      py      :    -0.000001

------------------------
MULLIKEN OVERLAP CHARGES
------------------------
B(  0-Mo,  1-N ) :   0.6780 B(  0-Mo,  2-N ) :   0.6669 B(  0-Mo,  3-N ) :   0.6519 
B(  0-Mo,  4-N ) :   0.1892 B(  0-Mo,  5-N ) :   0.2248 B(  0-Mo,  8-H ) :  -0.0501 
B(  0-Mo,  9-C ) :  -0.1538 B(  0-Mo, 12-C ) :  -0.1364 B(  0-Mo, 15-C ) :  -0.1311 
B(  0-Mo, 18-C ) :  -0.1268 B(  0-Mo, 21-C ) :  -0.1290 B(  0-Mo, 24-C ) :  -0.1336 
B(  0-Mo, 27-H ) :  -0.0727 B(  0-Mo, 28-H ) :  -0.0917 B(  0-Mo, 29-H ) :  -0.0706 
B(  1-N ,  9-C ) :   0.6273 B(  1-N , 10-H ) :  -0.0515 B(  1-N , 11-H ) :  -0.0763 
B(  1-N , 12-C ) :  -0.1585 B(  1-N , 28-H ) :   0.6662 B(  2-N , 15-C ) :   0.6103 
B(  2-N , 16-H ) :  -0.0714 B(  2-N , 17-H ) :  -0.0584 B(  2-N , 18-C ) :  -0.1681 
B(  2-N , 29-H ) :   0.6420 B(  3-N , 21-C ) :   0.6068 B(  3-N , 23-H ) :  -0.0776 
B(  3-N , 24-C ) :  -0.1613 B(  3-N , 27-H ) :   0.6711 B(  4-N ,  9-C ) :  -0.1203 
B(  4-N , 12-C ) :   0.4392 B(  4-N , 15-C ) :  -0.1159 B(  4-N , 18-C ) :   0.4094 
B(  4-N , 21-C ) :  -0.1188 B(  4-N , 24-C ) :   0.4280 B(  4-N , 25-H ) :  -0.0534 
B(  4-N , 26-H ) :  -0.0507 B(  5-N ,  6-H ) :   0.7242 B(  5-N ,  7-H ) :   0.7228 
B(  5-N ,  8-H ) :   0.7265 B(  9-C , 10-H ) :   0.8004 B(  9-C , 11-H ) :   0.7970 
B(  9-C , 12-C ) :   0.8570 B(  9-C , 13-H ) :  -0.0603 B(  9-C , 28-H ) :  -0.0861 
B( 10-H , 11-H ) :  -0.0932 B( 10-H , 12-C ) :  -0.0526 B( 11-H , 12-C ) :  -0.0764 
B( 12-C , 13-H ) :   0.7957 B( 12-C , 14-H ) :   0.8156 B( 12-C , 18-C ) :  -0.1009 
B( 12-C , 24-C ) :  -0.0977 B( 13-H , 14-H ) :  -0.0529 B( 15-C , 16-H ) :   0.7985 
B( 15-C , 17-H ) :   0.8051 B( 15-C , 18-C ) :   0.8639 B( 15-C , 19-H ) :  -0.0628 
B( 15-C , 29-H ) :  -0.0587 B( 16-H , 17-H ) :  -0.0912 B( 16-H , 18-C ) :  -0.0615 
B( 17-H , 18-C ) :  -0.0579 B( 18-C , 19-H ) :   0.8003 B( 18-C , 20-H ) :   0.8222 
B( 18-C , 24-C ) :  -0.0859 B( 19-H , 20-H ) :  -0.0516 B( 21-C , 22-H ) :   0.8028 
B( 21-C , 23-H ) :   0.8155 B( 21-C , 24-C ) :   0.8567 B( 21-C , 25-H ) :  -0.0562 
B( 21-C , 27-H ) :  -0.0625 B( 22-H , 23-H ) :  -0.0855 B( 22-H , 24-C ) :  -0.0545 
B( 23-H , 24-C ) :  -0.0906 B( 24-C , 25-H ) :   0.7901 B( 24-C , 26-H ) :   0.8141 
B( 25-H , 26-H ) :  -0.0510 


                     *******************************
                     * LOEWDIN POPULATION ANALYSIS *
                     *******************************

-------------------------------------------
LOEWDIN ATOMIC CHARGES AND SPIN POPULATIONS
-------------------------------------------
[...]
20 H  s               0.1       0.1       0.4       3.1       0.0       1.6
20 H  pz              0.1       0.0       0.0       0.3       0.0       0.0
20 H  px              2.3       0.0       0.0       9.5       0.0       0.0
20 H  py              0.1       0.0       0.0       0.0       0.0       0.0
21 C  s               0.7       0.0       0.5       0.7       0.4       0.8
21 C  pz              2.0       0.0       0.8       1.9       0.7       3.5
21 C  px              4.8       0.2       0.4       0.9       0.1       0.0
21 C  py              0.2       0.1       0.4       6.0       0.2       0.9
21 C  dxz             0.1       0.0       0.0       0.0       0.0       1.2
21 C  dyz             0.0       0.0       0.0       0.1       0.0       0.0
21 C  dx2y2           0.3       0.0       0.0       0.0       0.1       0.2
21 C  dxy             0.0       0.0       0.0       0.1       0.0       0.6
22 H  s               0.7       0.0       0.2       7.3       0.1       1.6
22 H  pz              2.0       0.0       0.2       4.3       0.0       0.4
22 H  px              0.5       0.0       0.1       0.0       0.0       0.0
22 H  py              0.0       0.0       0.0       0.2       0.0       2.5
23 H  s               1.0       0.1       4.3       0.3       0.0       1.2
23 H  pz             10.1       0.0       0.7       5.3       0.1       6.6
23 H  px              0.1       0.0       0.7       0.0       0.0       0.1
23 H  py              0.0       0.0       0.1       0.2       0.0       0.7
24 C  s               0.3       0.0       0.3       0.6       1.3       0.1
24 C  pz              0.1       0.0       0.6       1.4       1.4       2.2
24 C  px              0.8       0.0       4.7       1.0       8.0       1.0
24 C  py              1.1       0.1       2.0       0.1       3.3       0.4
24 C  dz2             0.1       0.0       0.1       0.3       1.0       0.3
24 C  dxz             0.0       0.0       0.0       0.0       0.0       0.2
24 C  dyz             0.4       0.0       1.5       0.3       1.2       0.1
24 C  dx2y2           0.3       0.0       0.3       0.1       0.1       0.1
24 C  dxy             0.1       0.0       0.4       0.2       0.9       0.2
25 H  s               0.1       0.0       0.2       2.4       0.4       1.9
25 H  pz              0.0       0.0       0.9       0.1       2.9       0.1
25 H  px              2.5       0.0       0.0       0.4       1.2       3.5
25 H  py              0.0       0.0       0.0       0.0       0.3       0.0
26 H  s               0.7       0.0       1.7       1.7      12.7       2.0
26 H  pz              0.0       0.0       0.1       0.4       0.5       0.1
26 H  px              0.6       0.0       0.0       0.1       1.4       0.4
26 H  py              0.6       0.0       1.1       0.0       0.0       1.1
27 H  s               0.7       0.1       0.2       0.3       1.2       0.6
27 H  pz              0.2       0.0       0.0       0.0       0.3       0.9
27 H  px              0.2       0.1       0.1       0.1       0.8       0.1
27 H  py              0.2       0.5       0.2       0.3       0.1       0.7
28 H  s               0.0       7.6       0.4       0.3       0.9       1.4
28 H  pz              0.2       1.9       0.3       0.1       1.1       0.1
28 H  px              0.0       0.3       0.1       0.1       0.1       0.1
28 H  py              0.2       1.2       0.4       0.4       0.0       0.1
29 H  s               1.1       3.5       0.2       0.9       0.3       0.5
29 H  pz              0.0       0.0       0.2       0.1       0.0       0.2
29 H  px              0.1       1.1       0.0       0.0       0.1       0.2


QR-MO GENERATION
 Dim     =  300
 Mult    =    2
 NEl     =  103
 N(DOMO) =   51
 N(SOMO) =    1
 N(VMO)  =  248

               ***  Starting incremental Fock matrix formation  ***

                ***Quasi-Restricted Orbitals were saved in Mo-TAEA-NH3_0_2_UHF_def2-tzvpp_def2-svp.rot.qro***

Orbital Energies of Quasi-Restricted MO's
   0( 2) :   -15.603203 a.u.  -424.585 eV
   1( 2) :   -15.574376 a.u.  -423.800 eV
   2( 2) :   -15.478399 a.u.  -421.189 eV
   3( 2) :   -15.475634 a.u.  -421.113 eV
   4( 2) :   -15.475584 a.u.  -421.112 eV
   5( 2) :   -11.252890 a.u.  -306.207 eV
   6( 2) :   -11.251527 a.u.  -306.170 eV
   7( 2) :   -11.250771 a.u.  -306.149 eV
   8( 2) :   -11.235132 a.u.  -305.723 eV
   9( 2) :   -11.234990 a.u.  -305.720 eV
  10( 2) :   -11.231927 a.u.  -305.636 eV
  11( 2) :    -2.936410 a.u.   -79.904 eV
  12( 2) :    -1.799073 a.u.   -48.955 eV
  13( 2) :    -1.765011 a.u.   -48.028 eV
  14( 2) :    -1.758208 a.u.   -47.843 eV
  15( 2) :    -1.208830 a.u.   -32.894 eV
  16( 2) :    -1.172020 a.u.   -31.892 eV
  17( 2) :    -1.083389 a.u.   -29.481 eV
  18( 2) :    -1.081216 a.u.   -29.421 eV
  19( 2) :    -1.065496 a.u.   -28.994 eV
  20( 2) :    -0.943885 a.u.   -25.684 eV
  21( 2) :    -0.942709 a.u.   -25.652 eV
  22( 2) :    -0.873343 a.u.   -23.765 eV
  23( 2) :    -0.783854 a.u.   -21.330 eV
  24( 2) :    -0.782627 a.u.   -21.296 eV
  25( 2) :    -0.745143 a.u.   -20.276 eV
  26( 2) :    -0.669173 a.u.   -18.209 eV
  27( 2) :    -0.667483 a.u.   -18.163 eV
  28( 2) :    -0.639121 a.u.   -17.391 eV
  29( 2) :    -0.636098 a.u.   -17.309 eV
  30( 2) :    -0.634704 a.u.   -17.271 eV
  31( 2) :    -0.609293 a.u.   -16.580 eV
  32( 2) :    -0.604629 a.u.   -16.453 eV
  33( 2) :    -0.570983 a.u.   -15.537 eV
  34( 2) :    -0.540704 a.u.   -14.713 eV
  35( 2) :    -0.534486 a.u.   -14.544 eV
  36( 2) :    -0.529647 a.u.   -14.412 eV
  37( 2) :    -0.511248 a.u.   -13.912 eV
  38( 2) :    -0.499237 a.u.   -13.585 eV
  39( 2) :    -0.492776 a.u.   -13.409 eV
  40( 2) :    -0.486932 a.u.   -13.250 eV
  41( 2) :    -0.473763 a.u.   -12.892 eV
  42( 2) :    -0.471461 a.u.   -12.829 eV
  43( 2) :    -0.451315 a.u.   -12.281 eV
  44( 2) :    -0.424184 a.u.   -11.543 eV
  45( 2) :    -0.423560 a.u.   -11.526 eV
  46( 2) :    -0.404138 a.u.   -10.997 eV
  47( 2) :    -0.331979 a.u.    -9.034 eV
  48( 2) :    -0.322885 a.u.    -8.786 eV
  49( 2) :    -0.295280 a.u.    -8.035 eV
  50( 2) :    -0.222617 a.u.    -6.058 eV
  51( 1) :    -0.028966 a.u.    -0.788 eV alpha=   -7.847 beta=    6.271
  52( 0) :     0.078708 a.u.     2.142 eV
  53( 0) :     0.119393 a.u.     3.249 eV
  54( 0) :     0.127965 a.u.     3.482 eV
  55( 0) :     0.155901 a.u.     4.242 eV
  56( 0) :     0.209282 a.u.     5.695 eV
  57( 0) :     0.210916 a.u.     5.739 eV
  58( 0) :     0.212559 a.u.     5.784 eV
  59( 0) :     0.233245 a.u.     6.347 eV
  60( 0) :     0.234704 a.u.     6.387 eV
  61( 0) :     0.245982 a.u.     6.694 eV
  62( 0) :     0.248288 a.u.     6.756 eV
  63( 0) :     0.250895 a.u.     6.827 eV
  64( 0) :     0.262494 a.u.     7.143 eV
  65( 0) :     0.263114 a.u.     7.160 eV
  66( 0) :     0.266888 a.u.     7.262 eV
  67( 0) :     0.280498 a.u.     7.633 eV
  68( 0) :     0.281836 a.u.     7.669 eV
  69( 0) :     0.300284 a.u.     8.171 eV
  70( 0) :     0.302954 a.u.     8.244 eV
  71( 0) :     0.305787 a.u.     8.321 eV
  72( 0) :     0.312646 a.u.     8.508 eV
  73( 0) :     0.319351 a.u.     8.690 eV
  74( 0) :     0.342725 a.u.     9.326 eV
  75( 0) :     0.345745 a.u.     9.408 eV
  76( 0) :     0.353386 a.u.     9.616 eV
  77( 0) :     0.358793 a.u.     9.763 eV
  78( 0) :     0.398538 a.u.    10.845 eV
  79( 0) :     0.400417 a.u.    10.896 eV
  80( 0) :     0.424881 a.u.    11.562 eV
  81( 0) :     0.426575 a.u.    11.608 eV
  82( 0) :     0.438426 a.u.    11.930 eV
  83( 0) :     0.439109 a.u.    11.949 eV
  84( 0) :     0.441158 a.u.    12.005 eV
  85( 0) :     0.479655 a.u.    13.052 eV
  86( 0) :     0.481869 a.u.    13.112 eV
  87( 0) :     0.499039 a.u.    13.580 eV
  88( 0) :     0.505494 a.u.    13.755 eV
  89( 0) :     0.514571 a.u.    14.002 eV
  90( 0) :     0.565253 a.u.    15.381 eV
  91( 0) :     0.567116 a.u.    15.432 eV
  92( 0) :     0.609830 a.u.    16.594 eV
  93( 0) :     0.610894 a.u.    16.623 eV
  94( 0) :     0.659788 a.u.    17.954 eV
  95( 0) :     0.660925 a.u.    17.985 eV
  96( 0) :     0.689830 a.u.    18.771 eV
  97( 0) :     0.733273 a.u.    19.953 eV
  98( 0) :     0.741402 a.u.    20.175 eV
  99( 0) :     0.750266 a.u.    20.416 eV
 100( 0) :     0.762324 a.u.    20.744 eV
 101( 0) :     0.777867 a.u.    21.167 eV
 102( 0) :     0.781746 a.u.    21.272 eV
 103( 0) :     0.789963 a.u.    21.496 eV
 104( 0) :     0.810902 a.u.    22.066 eV
 105( 0) :     0.819046 a.u.    22.287 eV
 106( 0) :     0.842946 a.u.    22.938 eV
 107( 0) :     0.844340 a.u.    22.976 eV
 108( 0) :     0.853461 a.u.    23.224 eV
 109( 0) :     0.857096 a.u.    23.323 eV
 110( 0) :     0.863654 a.u.    23.501 eV
 111( 0) :     0.871471 a.u.    23.714 eV
 112( 0) :     0.875272 a.u.    23.817 eV
 113( 0) :     0.904603 a.u.    24.615 eV
 114( 0) :     0.909511 a.u.    24.749 eV
 115( 0) :     0.910606 a.u.    24.779 eV
 116( 0) :     0.918038 a.u.    24.981 eV
 117( 0) :     0.921343 a.u.    25.071 eV
 118( 0) :     0.923500 a.u.    25.130 eV
 119( 0) :     0.925320 a.u.    25.179 eV
 120( 0) :     0.928796 a.u.    25.274 eV
 121( 0) :     0.933726 a.u.    25.408 eV
 122( 0) :     0.950796 a.u.    25.872 eV
 123( 0) :     0.963539 a.u.    26.219 eV
 124( 0) :     0.968651 a.u.    26.358 eV
 125( 0) :     0.986263 a.u.    26.838 eV
 126( 0) :     0.996811 a.u.    27.125 eV
 127( 0) :     1.001907 a.u.    27.263 eV
 128( 0) :     1.007664 a.u.    27.420 eV
 129( 0) :     1.012530 a.u.    27.552 eV
 130( 0) :     1.022378 a.u.    27.820 eV
 131( 0) :     1.071647 a.u.    29.161 eV
 132( 0) :     1.071935 a.u.    29.169 eV
 133( 0) :     1.082838 a.u.    29.466 eV
 134( 0) :     1.115196 a.u.    30.346 eV
 135( 0) :     1.119021 a.u.    30.450 eV
 136( 0) :     1.130181 a.u.    30.754 eV
 137( 0) :     1.150056 a.u.    31.295 eV
 138( 0) :     1.163471 a.u.    31.660 eV
 139( 0) :     1.176852 a.u.    32.024 eV
 140( 0) :     1.183370 a.u.    32.201 eV
 141( 0) :     1.225380 a.u.    33.344 eV
 142( 0) :     1.247490 a.u.    33.946 eV
 143( 0) :     1.264645 a.u.    34.413 eV
 144( 0) :     1.285883 a.u.    34.991 eV
 145( 0) :     1.302684 a.u.    35.448 eV
 146( 0) :     1.307061 a.u.    35.567 eV
 147( 0) :     1.316178 a.u.    35.815 eV
 148( 0) :     1.349875 a.u.    36.732 eV
 149( 0) :     1.351721 a.u.    36.782 eV
 150( 0) :     1.389385 a.u.    37.807 eV
 151( 0) :     1.398331 a.u.    38.051 eV
 152( 0) :     1.401443 a.u.    38.135 eV
 153( 0) :     1.418176 a.u.    38.591 eV
 154( 0) :     1.428728 a.u.    38.878 eV
 155( 0) :     1.436254 a.u.    39.082 eV
 156( 0) :     1.462703 a.u.    39.802 eV
 157( 0) :     1.493933 a.u.    40.652 eV
 158( 0) :     1.511470 a.u.    41.129 eV
 159( 0) :     1.532239 a.u.    41.694 eV
 160( 0) :     1.545168 a.u.    42.046 eV
 161( 0) :     1.550911 a.u.    42.202 eV
 162( 0) :     1.554820 a.u.    42.309 eV
 163( 0) :     1.568378 a.u.    42.678 eV
 164( 0) :     1.586811 a.u.    43.179 eV
 165( 0) :     1.608585 a.u.    43.772 eV
 166( 0) :     1.623228 a.u.    44.170 eV
 167( 0) :     1.659124 a.u.    45.147 eV
 168( 0) :     1.683667 a.u.    45.815 eV
 169( 0) :     1.687326 a.u.    45.914 eV
 170( 0) :     1.701645 a.u.    46.304 eV
 171( 0) :     1.739378 a.u.    47.331 eV
 172( 0) :     1.747010 a.u.    47.539 eV
 173( 0) :     1.760323 a.u.    47.901 eV
 174( 0) :     1.806538 a.u.    49.158 eV
 175( 0) :     1.821990 a.u.    49.579 eV
 176( 0) :     1.833774 a.u.    49.900 eV
 177( 0) :     1.842418 a.u.    50.135 eV
 178( 0) :     1.875302 a.u.    51.030 eV
 179( 0) :     1.893770 a.u.    51.532 eV
 180( 0) :     1.914612 a.u.    52.099 eV
 181( 0) :     1.922409 a.u.    52.311 eV
 182( 0) :     1.928824 a.u.    52.486 eV
 183( 0) :     1.939157 a.u.    52.767 eV
 184( 0) :     1.987218 a.u.    54.075 eV
 185( 0) :     1.994642 a.u.    54.277 eV
 186( 0) :     2.017557 a.u.    54.901 eV
 187( 0) :     2.029693 a.u.    55.231 eV
 188( 0) :     2.036585 a.u.    55.418 eV
 189( 0) :     2.042778 a.u.    55.587 eV
 190( 0) :     2.051913 a.u.    55.835 eV
 191( 0) :     2.064033 a.u.    56.165 eV
 192( 0) :     2.077998 a.u.    56.545 eV
 193( 0) :     2.087953 a.u.    56.816 eV
 194( 0) :     2.091694 a.u.    56.918 eV
 195( 0) :     2.097544 a.u.    57.077 eV
 196( 0) :     2.113191 a.u.    57.503 eV
 197( 0) :     2.116512 a.u.    57.593 eV
 198( 0) :     2.120947 a.u.    57.714 eV
 199( 0) :     2.147838 a.u.    58.446 eV
 200( 0) :     2.151632 a.u.    58.549 eV
 201( 0) :     2.180942 a.u.    59.346 eV
 202( 0) :     2.185639 a.u.    59.474 eV
 203( 0) :     2.192543 a.u.    59.662 eV
 204( 0) :     2.196026 a.u.    59.757 eV
 205( 0) :     2.205659 a.u.    60.019 eV
 206( 0) :     2.208519 a.u.    60.097 eV
 207( 0) :     2.229572 a.u.    60.670 eV
 208( 0) :     2.232314 a.u.    60.744 eV
 209( 0) :     2.238636 a.u.    60.916 eV
 210( 0) :     2.243353 a.u.    61.045 eV
 211( 0) :     2.246576 a.u.    61.132 eV
 212( 0) :     2.257950 a.u.    61.442 eV
 213( 0) :     2.279980 a.u.    62.041 eV
 214( 0) :     2.294707 a.u.    62.442 eV
 215( 0) :     2.302484 a.u.    62.654 eV
 216( 0) :     2.324820 a.u.    63.262 eV
 217( 0) :     2.363626 a.u.    64.318 eV
 218( 0) :     2.365994 a.u.    64.382 eV
 219( 0) :     2.374635 a.u.    64.617 eV
 220( 0) :     2.379698 a.u.    64.755 eV
 221( 0) :     2.400619 a.u.    65.324 eV
 222( 0) :     2.420784 a.u.    65.873 eV
 223( 0) :     2.442941 a.u.    66.476 eV
 224( 0) :     2.453901 a.u.    66.774 eV
 225( 0) :     2.496881 a.u.    67.944 eV
 226( 0) :     2.507719 a.u.    68.238 eV
 227( 0) :     2.523556 a.u.    68.669 eV
 228( 0) :     2.525549 a.u.    68.724 eV
 229( 0) :     2.548829 a.u.    69.357 eV
 230( 0) :     2.564127 a.u.    69.773 eV
 231( 0) :     2.590030 a.u.    70.478 eV
 232( 0) :     2.604902 a.u.    70.883 eV
 233( 0) :     2.625770 a.u.    71.451 eV
 234( 0) :     2.677927 a.u.    72.870 eV
 235( 0) :     2.689892 a.u.    73.196 eV
 236( 0) :     2.700773 a.u.    73.492 eV
 237( 0) :     2.702915 a.u.    73.550 eV
 238( 0) :     2.722391 a.u.    74.080 eV
 239( 0) :     2.724131 a.u.    74.127 eV
 240( 0) :     2.743450 a.u.    74.653 eV
 241( 0) :     2.746781 a.u.    74.744 eV
 242( 0) :     2.758322 a.u.    75.058 eV
 243( 0) :     2.764709 a.u.    75.232 eV
 244( 0) :     2.796804 a.u.    76.105 eV
 245( 0) :     2.812363 a.u.    76.528 eV
 246( 0) :     2.814861 a.u.    76.596 eV
 247( 0) :     2.852079 a.u.    77.609 eV
 248( 0) :     2.874924 a.u.    78.231 eV
 249( 0) :     2.885627 a.u.    78.522 eV
 250( 0) :     2.922174 a.u.    79.516 eV
 251( 0) :     2.946443 a.u.    80.177 eV
 252( 0) :     2.961085 a.u.    80.575 eV
 253( 0) :     2.972116 a.u.    80.875 eV
 254( 0) :     2.981488 a.u.    81.130 eV
 255( 0) :     2.994191 a.u.    81.476 eV
 256( 0) :     3.005246 a.u.    81.777 eV
 257( 0) :     3.042623 a.u.    82.794 eV
 258( 0) :     3.047835 a.u.    82.936 eV
 259( 0) :     3.071749 a.u.    83.587 eV
 260( 0) :     3.084480 a.u.    83.933 eV
 261( 0) :     3.087455 a.u.    84.014 eV
 262( 0) :     3.095455 a.u.    84.232 eV
 263( 0) :     3.136566 a.u.    85.350 eV
 264( 0) :     3.142350 a.u.    85.508 eV
 265( 0) :     3.154814 a.u.    85.847 eV
 266( 0) :     3.205544 a.u.    87.227 eV
 267( 0) :     3.206010 a.u.    87.240 eV
 268( 0) :     3.221976 a.u.    87.674 eV
 269( 0) :     3.228825 a.u.    87.861 eV
 270( 0) :     3.253507 a.u.    88.532 eV
 271( 0) :     3.264590 a.u.    88.834 eV
 272( 0) :     3.285643 a.u.    89.407 eV
 273( 0) :     3.295763 a.u.    89.682 eV
 274( 0) :     3.319737 a.u.    90.335 eV
 275( 0) :     3.336389 a.u.    90.788 eV
 276( 0) :     3.344624 a.u.    91.012 eV
 277( 0) :     3.358622 a.u.    91.393 eV
 278( 0) :     3.369952 a.u.    91.701 eV
 279( 0) :     3.379328 a.u.    91.956 eV
 280( 0) :     3.396346 a.u.    92.419 eV
 281( 0) :     3.419999 a.u.    93.063 eV
 282( 0) :     3.431383 a.u.    93.373 eV
 283( 0) :     3.456311 a.u.    94.051 eV
 284( 0) :     3.462374 a.u.    94.216 eV
 285( 0) :     3.520711 a.u.    95.803 eV
 286( 0) :     3.551442 a.u.    96.640 eV
 287( 0) :     3.552886 a.u.    96.679 eV
 288( 0) :     3.572495 a.u.    97.213 eV
 289( 0) :     3.666232 a.u.    99.763 eV
 290( 0) :     3.718285 a.u.   101.180 eV
 291( 0) :     3.720912 a.u.   101.251 eV
 292( 0) :     3.801149 a.u.   103.435 eV
 293( 0) :     3.811116 a.u.   103.706 eV
 294( 0) :     3.830477 a.u.   104.233 eV
 295( 0) :     3.864801 a.u.   105.167 eV
 296( 0) :     3.915978 a.u.   106.559 eV
 297( 0) :     4.039117 a.u.   109.910 eV
 298( 0) :    24.941677 a.u.   678.698 eV
 299( 0) :    85.985065 a.u.  2339.773 eV
-------
TIMINGS
-------

Total SCF time: 0 days 0 hours 0 min 33 sec 

Total time                  ....      33.576 sec
Sum of individual times     ....      58.991 sec  (175.7%)

Fock matrix formation       ....      25.512 sec  ( 76.0%)
  Split-RI-J                ....       2.764 sec  ( 10.8% of F)
  Chain of spheres X        ....      22.725 sec  ( 89.1% of F)
  COS-X 1 center corr.      ....       0.000 sec  (  0.0% of F)
Diagonalization             ....       0.000 sec  (  0.0%)
Density matrix formation    ....       0.004 sec  (  0.0%)
Population analysis         ....      31.633 sec  ( 94.2%)
Initial guess               ....       0.034 sec  (  0.1%)
Orbital Transformation      ....       0.000 sec  (  0.0%)
Orbital Orthonormalization  ....       0.019 sec  (  0.1%)
DIIS solution               ....       0.007 sec  (  0.0%)

-------------------------   --------------------
FINAL SINGLE POINT ENERGY         0.000000000000
-------------------------   --------------------


                            ***************************************
                            *     ORCA property calculations      *
                            ***************************************

                                    ---------------------
                                    Active property flags
                                    ---------------------
   (+) Dipole Moment


------------------------------------------------------------------------------
                       ORCA ELECTRIC PROPERTIES CALCULATION
------------------------------------------------------------------------------

Dipole Moment Calculation                       ... on
Quadrupole Moment Calculation                   ... off
Polarizability Calculation                      ... off
GBWName                                         ... Mo-TAEA-NH3_0_2_UHF_def2-tzvpp_def2-svp.rot.gbw
Electron density file                           ... Mo-TAEA-NH3_0_2_UHF_def2-tzvpp_def2-svp.rot.scfp
The origin for moment calculation is the CENTER OF MASS  = (13.875726, 30.034957 26.912410)

-------------
DIPOLE MOMENT
-------------
                                X             Y             Z
Electronic contribution:    -13.53589     -11.55412     -52.10785
Nuclear contribution   :     13.08235      11.34227      51.34275
                        -----------------------------------------
Total Dipole Moment    :     -0.45353      -0.21184      -0.76510
                        -----------------------------------------
Magnitude (a.u.)       :      0.91430
Magnitude (Debye)      :      2.32397



--------------------
Rotational spectrum 
--------------------
 
Rotational constants in cm-1:     0.029881     0.022964     0.022877 
Rotational constants in MHz :   895.812205   688.437631   685.832232 

 Dipole components along the rotational axes: 
x,y,z [a.u.] :    -0.879004    -0.045840     0.247387 
x,y,z [Debye]:    -2.234251    -0.116516     0.628809 

 

Timings for individual modules:

Sum of individual times         ...       35.331 sec (=   0.589 min)
GTO integral calculation        ...        1.710 sec (=   0.029 min)   4.8 %
SCF iterations                  ...       33.621 sec (=   0.560 min)  95.2 %
                             ****ORCA TERMINATED NORMALLY****
TOTAL RUN TIME: 0 days 0 hours 0 minutes 35 seconds 683 msec
