
                                 *****************
                                 * O   R   C   A *
                                 *****************

           --- An Ab Initio, DFT and Semiempirical electronic structure package ---

                  #######################################################
                  #                        -***-                        #
                  #          Department of theory and spectroscopy      #
                  #               Directorship: Frank Neese             #
                  #        Max Planck Institute fuer Kohlenforschung    #
                  #                Kaiser Wilhelm Platz 1               #
                  #                 D-45470 Muelheim/Ruhr               #
                  #                      Germany                        #
                  #                                                     #
                  #                  All rights reserved                #
                  #                        -***-                        #
                  #######################################################


                         Program Version 4.2.0 -  RELEASE  -


 With contributions from (in alphabetic order):
   Daniel Aravena         : Magnetic Suceptibility
   Michael Atanasov       : Ab Initio Ligand Field Theory (pilot matlab implementation)
   Alexander A. Auer      : GIAO ZORA, VPT2
   Ute Becker             : Parallelization
   Giovanni Bistoni       : ED, misc. LED, open-shell LED, HFLED
   Martin Brehm           : Molecular dynamics
   Dmytro Bykov           : SCF Hessian
   Vijay G. Chilkuri      : MRCI spin determinant printing, contributions to CSF-ICE
   Dipayan Datta          : RHF DLPNO-CCSD density
   Achintya Kumar Dutta   : EOM-CC, STEOM-CC
   Dmitry Ganyushin       : Spin-Orbit,Spin-Spin,Magnetic field MRCI
   Miquel Garcia          : C-PCM Hessian, Gaussian charge scheme
   Yang Guo               : DLPNO-NEVPT2, CIM, IAO-localization
   Andreas Hansen         : Spin unrestricted coupled pair/coupled cluster methods
   Benjamin Helmich-Paris : CASSCF linear response (MC-RPA)
   Lee Huntington         : MR-EOM, pCC
   Robert Izsak           : Overlap fitted RIJCOSX, COSX-SCS-MP3, EOM
   Christian Kollmar      : KDIIS, OOCD, Brueckner-CCSD(T), CCSD density
   Simone Kossmann        : Meta GGA functionals, TD-DFT gradient, OOMP2, MP2 Hessian
   Martin Krupicka        : AUTO-CI
   Lucas Lang             : DCDCAS
   Dagmar Lenk            : GEPOL surface, SMD
   Dimitrios Liakos       : Extrapolation schemes; Compound Job, initial MDCI parallelization
   Dimitrios Manganas     : Further ROCIS development; embedding schemes
   Dimitrios Pantazis     : SARC Basis sets
   Taras Petrenko         : DFT Hessian,TD-DFT gradient, ASA, ECA, R-Raman, ABS, FL, XAS/XES, NRVS
   Peter Pinski           : DLPNO-MP2, DLPNO-MP2 Gradient
   Christoph Reimann      : Effective Core Potentials
   Marius Retegan         : Local ZFS, SOC
   Christoph Riplinger    : Optimizer, TS searches, QM/MM, DLPNO-CCSD(T), (RO)-DLPNO pert. Triples
   Tobias Risthaus        : Range-separated hybrids, TD-DFT gradient, RPA, STAB
   Michael Roemelt        : Original ROCIS implementation
   Masaaki Saitow         : Open-shell DLPNO-CCSD energy and density
   Barbara Sandhoefer     : DKH picture change effects
   Avijit Sen             : IP-ROCIS
   Kantharuban Sivalingam : CASSCF convergence, NEVPT2, FIC-MRCI
   Bernardo de Souza      : ESD, SOC TD-DFT
   Georgi Stoychev        : AutoAux, RI-MP2 NMR
   Willem Van den Heuvel  : Paramagnetic NMR
   Boris Wezisla          : Elementary symmetry handling
   Frank Wennmohs         : Technical directorship


 We gratefully acknowledge several colleagues who have allowed us to
 interface, adapt or use parts of their codes:
   Stefan Grimme, W. Hujo, H. Kruse,             : VdW corrections, initial TS optimization,
                  C. Bannwarth                     DFT functionals, gCP, sTDA/sTD-DF
   Ed Valeev, F. Pavosevic, A. Kumar             : LibInt (2-el integral package), F12 methods
   Garnet Chan, S. Sharma, J. Yang, R. Olivares  : DMRG
   Ulf Ekstrom                                   : XCFun DFT Library
   Mihaly Kallay                                 : mrcc  (arbitrary order and MRCC methods)
   Andreas Klamt, Michael Diedenhofen            : otool_cosmo (COSMO solvation model)
   Jiri Pittner, Ondrej Demel                    : Mk-CCSD
   Frank Weinhold                                : gennbo (NPA and NBO analysis)
   Christopher J. Cramer and Donald G. Truhlar   : smd solvation model
   Lars Goerigk                                  : TD-DFT with DH, B97 family of functionals
   V. Asgeirsson, H. Jonsson                     : NEB implementation
   FAccTs GmbH                                   : IRC, NEB, NEB-TS, Multilevel, MM, QM/MM, CI optimization
   S Lehtola, MJT Oliveira, MAL Marques          : LibXC Library


 Your calculation uses the libint2 library for the computation of 2-el integrals
 For citations please refer to: http://libint.valeyev.net

 Your ORCA version has been built with support for libXC version: 4.2.3
 For citations please refer to: https://tddft.org/programs/libxc/

 This ORCA versions uses:
   CBLAS   interface :  Fast vector & matrix operations
   LAPACKE interface :  Fast linear algebra routines
   SCALAPACK package :  Parallel linear algebra routines




***************************************
The coordinates will be read from file: Mo-TAEA-NH3_0_2_bp86_lanl2dz_6-31gpol.opt.xyz
***************************************


----- Orbital basis set information -----
Your calculation utilizes the basis: def2-SVP
   F. Weigend and R. Ahlrichs, Phys. Chem. Chem. Phys. 7, 3297 (2005).

----- AuxJ basis set information -----
Your calculation utilizes the AutoAux generation procedure.
  G. L. Stoychev, A. A. Auer, F. Neese, J. Chem. Theory Comput. 13, 554 (2017)

----- AuxC basis set information -----
Your calculation utilizes the AutoAux generation procedure.
  G. L. Stoychev, A. A. Auer, F. Neese, J. Chem. Theory Comput. 13, 554 (2017)

----- AuxJK basis set information -----
Your calculation utilizes the AutoAux generation procedure.
  G. L. Stoychev, A. A. Auer, F. Neese, J. Chem. Theory Comput. 13, 554 (2017)

cite the ECPs for Mo [Def2-ECP] as follows:
Ce-Yb(ecp-28): M. Dolg, H. Stoll, H.Preuss, J. Chem. Phys., 1989, 90, 1730-1734.
Y-Cd(ecp-28), Hf-Hg(ecp-46): D. Andrae,U. Haeussermann, M. Dolg, H. Stoll, H. Preuss, Theor. Chim. Acta, 1990, 77, 123-141.
In-Sb(ecp-28), Tl-Bi(ecp-46): B. Metz, H. Stoll, M. Dolg, J. Chem. Phys., 2000, 113, 2563-2569.
Te-Xe(ecp-28), Po-Rn(ecp-46): K. A. Peterson, D. Figgen, E. Goll, H. Stoll, M. Dolg, J. Chem. Phys., 2003, 119, 11113-11123.
Rb(ecp-28), Cs(ecp-46): T. Leininger, A. Nicklass, W. Kuechle, H. Stoll, M. Dolg, A. Bergner, Chem. Phys. Lett., 1996, 255, 274-280.
Sr(ecp-28), Ba(ecp-46): M. Kaupp, P. V. Schleyer, H. Stoll and H. Preuss, J. Chem. Phys., 1991, 94, 1360-1366.
La(ecp-46): M. Dolg, H. Stoll, A. Savin, H. Preuss, Theor. Chim. Acta, 1989, 75, 173-194.
Lu(ecp-28): X. Cao, M. Dolg, J. Chem. Phys., 2001, 115, 7348-7355.

ECP parameters for Mo [Def2-ECP] have been obtained from:
TURBOMOLE (7.0.2)

================================================================================
                                        WARNINGS
                       Please study these warnings very carefully!
================================================================================


INFO   : the flag for use of LIBINT has been found!

================================================================================
                                       INPUT FILE
================================================================================
NAME = Mo-TAEA-NH3_0_2_b3lyp_def2-tzvp_def2-svp.epr.inp
|  1> !uks b3lyp def2-svp tightscf ri-somf(1x)
|  2> !normalprint autoaux rijcosx
|  3> !pal8
|  4> !moread
|  5> 
|  6> %moinp "Mo-TAEA-NH3_0_2_bp86_lanl2dz_6-31gpol.opt.gbw"
|  7> 
|  8> %scf
|  9>   maxiter 500
| 10> end
| 11> 
| 12> %basis
| 13>   newgto Mo "def2-tzvpp" end
| 14> end
| 15> 
| 16> %eprnmr
| 17>   gtensor true
| 18>   dtensor ssandso
| 19>   dsoc cp
| 20>   dss direct
| 21> end
| 22> 
| 23> *xyzfile 0 2 Mo-TAEA-NH3_0_2_bp86_lanl2dz_6-31gpol.opt.xyz
| 24> 
| 25>                          ****END OF INPUT****
================================================================================

                       ****************************
                       * Single Point Calculation *
                       ****************************

---------------------------------
CARTESIAN COORDINATES (ANGSTROEM)
---------------------------------
  Mo     7.161049   15.739738   13.552686
  N      5.471131   15.197321   14.433170
  N      8.746513   14.519192   13.704041
  N      7.513929   17.690751   13.295368
  N      7.695166   16.198866   15.587176
  N      6.603922   15.231830   11.462641
  H      7.300179   14.609821   11.024603
  H      6.582185   16.069042   10.861573
  H      5.689405   14.766295   11.323835
  C      5.318330   15.472719   15.889445
  H      4.718837   14.691744   16.407905
  H      4.803931   16.445807   16.083145
  C      6.730529   15.489986   16.521529
  H      6.730688   15.959049   17.529273
  H      7.091922   14.450770   16.617908
  C      9.341792   14.392155   15.055764
  H      8.898896   13.552112   15.643655
  H     10.439166   14.205749   15.018849
  C      9.115827   15.727841   15.802263
  H      9.351319   15.638174   16.885554
  H      9.771732   16.497146   15.359352
  C      8.072414   18.413421   14.460314
  H      7.732135   19.471513   14.510628
  H      9.187754   18.441834   14.435862
  C      7.596196   17.702186   15.754170
  H      8.166575   18.034873   16.649563
  H      6.527762   17.934893   15.909817
  H      7.282313   18.335594   12.527952
  H      4.557056   14.915977   14.040522
  H      8.871089   13.632708   13.191849

----------------------------
CARTESIAN COORDINATES (A.U.)
----------------------------
  NO LB      ZA    FRAG     MASS         X           Y           Z
   0 Mo   14.0000*   0    95.940   13.532422   29.743793   25.610866
   1 N     7.0000    0    14.007   10.338940   28.718775   27.274739
   2 N     7.0000    0    14.007   16.528514   27.437296   25.896884
   3 N     7.0000    0    14.007   14.199268   33.430674   25.124604
   4 N     7.0000    0    14.007   14.541757   30.611421   29.455494
   5 N     7.0000    0    14.007   12.479604   28.783986   21.661253
   6 H     1.0000    0     1.008   13.795339   27.608561   20.833480
   7 H     1.0000    0     1.008   12.438526   30.366089   20.525399
   8 H     1.0000    0     1.008   10.751417   27.904253   21.398946
   9 C     6.0000    0    12.011   10.050188   29.239201   30.026700
  10 H     1.0000    0     1.008    8.917310   27.763372   31.006447
  11 H     1.0000    0     1.008    9.078115   31.078071   30.392739
  12 C     6.0000    0    12.011   12.718857   29.271831   31.221165
  13 H     1.0000    0     1.008   12.719157   30.158232   33.125525
  14 H     1.0000    0     1.008   13.401791   27.307997   31.403296
  15 C     6.0000    0    12.011   17.653429   27.197232   28.451270
  16 H     1.0000    0     1.008   16.816477   25.609780   29.562224
  17 H     1.0000    0     1.008   19.727164   26.844974   28.381512
  18 C     6.0000    0    12.011   17.226417   29.721313   29.861948
  19 H     1.0000    0     1.008   17.671432   29.551867   31.909073
  20 H     1.0000    0     1.008   18.465898   31.175088   29.024968
  21 C     6.0000    0    12.011   15.254652   34.796322   27.326033
  22 H     1.0000    0     1.008   14.611617   36.795826   27.421113
  23 H     1.0000    0     1.008   17.362339   34.850015   27.279825
  24 C     6.0000    0    12.011   14.354730   33.452283   29.771067
  25 H     1.0000    0     1.008   15.432589   34.080971   31.463114
  26 H     1.0000    0     1.008   12.335682   33.892037   30.065196
  27 H     1.0000    0     1.008   13.761577   34.649251   23.674398
  28 H     1.0000    0     1.008    8.611588   28.187112   26.532742
  29 H     1.0000    0     1.008   16.763929   25.762084   24.928982
* core charge reduced due to ECP

--------------------------------
INTERNAL COORDINATES (ANGSTROEM)
--------------------------------
 Mo     0   0   0     0.000000000000     0.00000000     0.00000000
 N      1   0   0     1.981234642873     0.00000000     0.00000000
 N      1   2   0     2.006572682212   118.28790299     0.00000000
 N      1   2   3     1.999297310526   118.35363094   207.25629586
 N      1   2   3     2.152957791624    81.37503503   283.86639245
 N      1   2   3     2.221857283880    98.13949128   103.06988836
 H      6   1   2     1.031283661258   111.60087104   233.50743684
 H      6   1   2     1.030863984925   111.59942952   116.54725674
 H      6   1   2     1.035534290335   116.76319240   355.02085702
 C      2   1   3     1.489942550913   118.11486432    82.33578703
 H     10   2   1     1.112705899112   112.39177158   213.59800283
 H     10   2   1     1.117598495088   112.18148717    93.74387220
 C      5   1   2     1.518568853087   108.92250654    16.99158323
 H     13   5   1     1.111561056865   111.14576342   199.86639625
 H     13   5   1     1.104474753788   106.56280956    81.79111518
 C      3   1   2     1.482447642628   115.98802362   291.79060209
 H     16   3   1     1.116891407069   112.65419201    91.04333353
 H     16   3   1     1.113704756387   112.32029921   211.17653548
 C      5   1   2     1.512086208770   107.52204052   137.76368300
 H     19   5   1     1.112212683555   111.25936073   197.71409111
 H     19   5   1     1.103725768588   106.50684944    79.36845554
 C      4   1   2     1.480289376421   116.21295274    82.42716226
 H     22   4   1     1.112600639760   112.61131513   212.51074522
 H     22   4   1     1.115969832290   111.85473104    92.72859252
 C      5   1   2     1.515800861446   107.42203338   257.02698309
 H     25   5   1     1.112537513584   110.59526786   198.66482789
 H     25   5   1     1.104504813610   106.71669465    80.67871613
 H      4   1   2     1.028783563807   131.90775782   270.53642578
 H      2   1   3     1.033857110109   131.28910945   247.89365626
 H      3   1   2     1.031364636486   125.50726437    74.89190536

---------------------------
INTERNAL COORDINATES (A.U.)
---------------------------
 Mo     0   0   0     0.000000000000     0.00000000     0.00000000
 N      1   0   0     3.743990882067     0.00000000     0.00000000
 N      1   2   0     3.791872837188   118.28790299     0.00000000
 N      1   2   3     3.778124377179   118.35363094   207.25629586
 N      1   2   3     4.068500604062    81.37503503   283.86639245
 N      1   2   3     4.198701775191    98.13949128   103.06988836
 H      6   1   2     1.948843686166   111.60087104   233.50743684
 H      6   1   2     1.948050612830   111.59942952   116.54725674
 H      6   1   2     1.956876211018   116.76319240   355.02085702
 C      2   1   3     2.815583376501   118.11486432    82.33578703
 H     10   2   1     2.102709416921   112.39177158   213.59800283
 H     10   2   1     2.111955083398   112.18148717    93.74387220
 C      5   1   2     2.869679247837   108.92250654    16.99158323
 H     13   5   1     2.100545978607   111.14576342   199.86639625
 H     13   5   1     2.087154806489   106.56280956    81.79111518
 C      3   1   2     2.801420052444   115.98802362   291.79060209
 H     16   3   1     2.110618880691   112.65419201    91.04333353
 H     16   3   1     2.104596983617   112.32029921   211.17653548
 C      5   1   2     2.857428825454   107.52204052   137.76368300
 H     19   5   1     2.101777374592   111.25936073   197.71409111
 H     19   5   1     2.085739429584   106.50684944    79.36845554
 C      4   1   2     2.797341520389   116.21295274    82.42716226
 H     22   4   1     2.102510505572   112.61131513   212.51074522
 H     22   4   1     2.108877356746   111.85473104    92.72859252
 C      5   1   2     2.864448501696   107.42203338   257.02698309
 H     25   5   1     2.102391214387   110.59526786   198.66482789
 H     25   5   1     2.087211611321   106.71669465    80.67871613
 H      4   1   2     1.944119186674   131.90775782   270.53642578
 H      2   1   3     1.953706799712   131.28910945   247.89365626
 H      3   1   2     1.948996707170   125.50726437    74.89190536

---------------------
BASIS SET INFORMATION
---------------------
There are 4 groups of distinct atoms

 Group   1 Type Mo  : 7s7p5d2f1g contracted to 6s4p3d2f1g pattern {211111/4111/311/11/1}
 Group   2 Type N   : 7s4p1d contracted to 3s2p1d pattern {511/31/1}
 Group   3 Type H   : 4s1p contracted to 2s1p pattern {31/1}
 Group   4 Type C   : 7s4p1d contracted to 3s2p1d pattern {511/31/1}

Atom   0Mo   basis set group =>   1
Atom   1N    basis set group =>   2
Atom   2N    basis set group =>   2
Atom   3N    basis set group =>   2
Atom   4N    basis set group =>   2
Atom   5N    basis set group =>   2
Atom   6H    basis set group =>   3
Atom   7H    basis set group =>   3
Atom   8H    basis set group =>   3
Atom   9C    basis set group =>   4
Atom  10H    basis set group =>   3
Atom  11H    basis set group =>   3
Atom  12C    basis set group =>   4
Atom  13H    basis set group =>   3
Atom  14H    basis set group =>   3
Atom  15C    basis set group =>   4
Atom  16H    basis set group =>   3
Atom  17H    basis set group =>   3
Atom  18C    basis set group =>   4
Atom  19H    basis set group =>   3
Atom  20H    basis set group =>   3
Atom  21C    basis set group =>   4
Atom  22H    basis set group =>   3
Atom  23H    basis set group =>   3
Atom  24C    basis set group =>   4
Atom  25H    basis set group =>   3
Atom  26H    basis set group =>   3
Atom  27H    basis set group =>   3
Atom  28H    basis set group =>   3
Atom  29H    basis set group =>   3
---------------------------------
AUXILIARY/J BASIS SET INFORMATION
---------------------------------
There are 4 groups of distinct atoms

 Group   1 Type Mo  : 12s11p11d9f9g3h3i contracted to 12s11p11d9f9g3h3i pattern {111111111111/11111111111/11111111111/111111111/111111111/111/111}
 Group   2 Type N   : 14s11p10d2f contracted to 14s11p10d2f pattern {11111111111111/11111111111/1111111111/11}
 Group   3 Type H   : 9s2p1d contracted to 9s2p1d pattern {111111111/11/1}
 Group   4 Type C   : 14s11p10d2f contracted to 14s11p10d2f pattern {11111111111111/11111111111/1111111111/11}

Atom   0Mo   basis set group =>   1
Atom   1N    basis set group =>   2
Atom   2N    basis set group =>   2
Atom   3N    basis set group =>   2
Atom   4N    basis set group =>   2
Atom   5N    basis set group =>   2
Atom   6H    basis set group =>   3
Atom   7H    basis set group =>   3
Atom   8H    basis set group =>   3
Atom   9C    basis set group =>   4
Atom  10H    basis set group =>   3
Atom  11H    basis set group =>   3
Atom  12C    basis set group =>   4
Atom  13H    basis set group =>   3
Atom  14H    basis set group =>   3
Atom  15C    basis set group =>   4
Atom  16H    basis set group =>   3
Atom  17H    basis set group =>   3
Atom  18C    basis set group =>   4
Atom  19H    basis set group =>   3
Atom  20H    basis set group =>   3
Atom  21C    basis set group =>   4
Atom  22H    basis set group =>   3
Atom  23H    basis set group =>   3
Atom  24C    basis set group =>   4
Atom  25H    basis set group =>   3
Atom  26H    basis set group =>   3
Atom  27H    basis set group =>   3
Atom  28H    basis set group =>   3
Atom  29H    basis set group =>   3
---------------------------------
AUXILIARY/C BASIS SET INFORMATION
---------------------------------
There are 4 groups of distinct atoms

 Group   1 Type Mo  : 12s11p11d9f9g3h3i contracted to 12s11p11d9f9g3h3i pattern {111111111111/11111111111/11111111111/111111111/111111111/111/111}
 Group   2 Type N   : 14s11p10d2f contracted to 14s11p10d2f pattern {11111111111111/11111111111/1111111111/11}
 Group   3 Type H   : 9s2p1d contracted to 9s2p1d pattern {111111111/11/1}
 Group   4 Type C   : 14s11p10d2f contracted to 14s11p10d2f pattern {11111111111111/11111111111/1111111111/11}

Atom   0Mo   basis set group =>   1
Atom   1N    basis set group =>   2
Atom   2N    basis set group =>   2
Atom   3N    basis set group =>   2
Atom   4N    basis set group =>   2
Atom   5N    basis set group =>   2
Atom   6H    basis set group =>   3
Atom   7H    basis set group =>   3
Atom   8H    basis set group =>   3
Atom   9C    basis set group =>   4
Atom  10H    basis set group =>   3
Atom  11H    basis set group =>   3
Atom  12C    basis set group =>   4
Atom  13H    basis set group =>   3
Atom  14H    basis set group =>   3
Atom  15C    basis set group =>   4
Atom  16H    basis set group =>   3
Atom  17H    basis set group =>   3
Atom  18C    basis set group =>   4
Atom  19H    basis set group =>   3
Atom  20H    basis set group =>   3
Atom  21C    basis set group =>   4
Atom  22H    basis set group =>   3
Atom  23H    basis set group =>   3
Atom  24C    basis set group =>   4
Atom  25H    basis set group =>   3
Atom  26H    basis set group =>   3
Atom  27H    basis set group =>   3
Atom  28H    basis set group =>   3
Atom  29H    basis set group =>   3
----------------------------------
AUXILIARY/JK BASIS SET INFORMATION
----------------------------------
There are 4 groups of distinct atoms

 Group   1 Type Mo  : 12s11p11d9f9g3h3i contracted to 12s11p11d9f9g3h3i pattern {111111111111/11111111111/11111111111/111111111/111111111/111/111}
 Group   2 Type N   : 14s11p10d2f contracted to 14s11p10d2f pattern {11111111111111/11111111111/1111111111/11}
 Group   3 Type H   : 9s2p1d contracted to 9s2p1d pattern {111111111/11/1}
 Group   4 Type C   : 14s11p10d2f contracted to 14s11p10d2f pattern {11111111111111/11111111111/1111111111/11}

Atom   0Mo   basis set group =>   1
Atom   1N    basis set group =>   2
Atom   2N    basis set group =>   2
Atom   3N    basis set group =>   2
Atom   4N    basis set group =>   2
Atom   5N    basis set group =>   2
Atom   6H    basis set group =>   3
Atom   7H    basis set group =>   3
Atom   8H    basis set group =>   3
Atom   9C    basis set group =>   4
Atom  10H    basis set group =>   3
Atom  11H    basis set group =>   3
Atom  12C    basis set group =>   4
Atom  13H    basis set group =>   3
Atom  14H    basis set group =>   3
Atom  15C    basis set group =>   4
Atom  16H    basis set group =>   3
Atom  17H    basis set group =>   3
Atom  18C    basis set group =>   4
Atom  19H    basis set group =>   3
Atom  20H    basis set group =>   3
Atom  21C    basis set group =>   4
Atom  22H    basis set group =>   3
Atom  23H    basis set group =>   3
Atom  24C    basis set group =>   4
Atom  25H    basis set group =>   3
Atom  26H    basis set group =>   3
Atom  27H    basis set group =>   3
Atom  28H    basis set group =>   3
Atom  29H    basis set group =>   3
-------------------------
ECP PARAMETER INFORMATION
-------------------------

 Group 1, Type Mo ECP Def2-ECP (replacing 28 core electrons, lmax=3)

Atom   0Mo   ECP group =>   1



           ************************************************************
           *        Program running with 8 parallel MPI-processes     *
           *              working on a common directory               *
           ************************************************************
------------------------------------------------------------------------------
                           ORCA GTO INTEGRAL CALCULATION
                           -- RI-GTO INTEGRALS CHOSEN --
------------------------------------------------------------------------------

                         BASIS SET STATISTICS AND STARTUP INFO

Gaussian basis set:
 # of primitive gaussian shells          ...  244
 # of primitive gaussian functions       ...  466
 # of contracted shells                  ...  136
 # of contracted basis functions         ...  300
 Highest angular momentum                ...    4
 Maximum contraction depth               ...    5
Auxiliary gaussian basis set:
 # of primitive gaussian shells          ...  681
 # of primitive gaussian functions       ... 1897
 # of contracted shells                  ...  681
 # of contracted aux-basis functions     ... 1897
 Highest angular momentum                ...    6
 Maximum contraction depth               ...    1
Ratio of auxiliary to basis functions    ...  6.32
Integral package used                  ... LIBINT
 One Electron integrals                  
   ECP integrals                         ... done
 Ordering auxiliary basis shells         ... done
 Integral threshhold             Thresh  ...  2.500e-11
 Primitive cut-off               TCut    ...  2.500e-12
 Pre-screening matrix                    ... done
 Shell pair data                         ... 
 Ordering of the shell pairs             ... done (   0.002 sec) 8523 of 9316 pairs
 Determination of significant pairs      ... done (   0.000 sec)
 Creation of shell pair data             ... done (   0.001 sec)
 Storage of shell pair data              ... done (   0.006 sec)
 Shell pair data done in (   0.009 sec)
 Computing two index integrals           ... done
 Cholesky decomposition of the V-matrix  ... done


Timings:
 Total evaluation time                   ...   1.798 sec (  0.030 min)
 One electron matrix time                ...   1.184 sec (  0.020 min) = 65.8%
 Schwartz matrix evaluation time         ...   0.153 sec (  0.003 min) =  8.5%
 Two index repulsion integral time       ...   0.223 sec (  0.004 min) = 12.4%
 Cholesky decomposition of V             ...   0.194 sec (  0.003 min) = 10.8%
 Three index repulsion integral time     ...   0.000 sec (  0.000 min) =  0.0%



           ************************************************************
           *        Program running with 8 parallel MPI-processes     *
           *              working on a common directory               *
           ************************************************************
-------------------------------------------------------------------------------
                                 ORCA SCF
-------------------------------------------------------------------------------

------------
SCF SETTINGS
------------
Hamiltonian:
 Density Functional     Method          .... DFT(GTOs)
 Exchange Functional    Exchange        .... B88
   X-Alpha parameter    XAlpha          ....  0.666667
   Becke's b parameter  XBeta           ....  0.004200
 Correlation Functional Correlation     .... LYP
 LDA part of GGA corr.  LDAOpt          .... VWN-5
 Gradients option       PostSCFGGA      .... off
 Hybrid DFT is turned on
   Fraction HF Exchange ScalHFX         ....  0.200000
   Scaling of DF-GGA-X  ScalDFX         ....  0.720000
   Scaling of DF-GGA-C  ScalDFC         ....  0.810000
   Scaling of DF-LDA-C  ScalLDAC        ....  1.000000
   Perturbative correction              ....  0.000000
   Density functional embedding theory  .... OFF
   NL short-range parameter             ....  4.800000
 RI-approximation to the Coulomb term is turned on
   Number of auxiliary basis functions  .... 1897
   RIJ-COSX (HFX calculated with COS-X)).... on


General Settings:
 Integral files         IntName         .... Mo-TAEA-NH3_0_2_b3lyp_def2-tzvp_def2-svp.epr
 Hartree-Fock type      HFTyp           .... UHF
 Total Charge           Charge          ....    0
 Multiplicity           Mult            ....    2
 Number of Electrons    NEL             ....  103
 Basis Dimension        Dim             ....  300
 Nuclear Repulsion      ENuc            ....    929.6310470229 Eh

Convergence Acceleration:
 DIIS                   CNVDIIS         .... on
   Start iteration      DIISMaxIt       ....    12
   Startup error        DIISStart       ....  0.200000
   # of expansion vecs  DIISMaxEq       ....     5
   Bias factor          DIISBfac        ....   1.050
   Max. coefficient     DIISMaxC        ....  10.000
 Newton-Raphson         CNVNR           .... off
 SOSCF                  CNVSOSCF        .... off
 Level Shifting         CNVShift        .... on
   Level shift para.    LevelShift      ....    0.2500
   Turn off err/grad.   ShiftErr        ....    0.0010
 Zerner damping         CNVZerner       .... off
 Static damping         CNVDamp         .... on
   Fraction old density DampFac         ....    0.7000
   Max. Damping (<1)    DampMax         ....    0.9800
   Min. Damping (>=0)   DampMin         ....    0.0000
   Turn off err/grad.   DampErr         ....    0.1000
 Fernandez-Rico         CNVRico         .... off

SCF Procedure:
 Maximum # iterations   MaxIter         ....   500
 SCF integral mode      SCFMode         .... Direct
   Integral package                     .... LIBINT
 Reset frequency        DirectResetFreq ....    20
 Integral Threshold     Thresh          ....  2.500e-11 Eh
 Primitive CutOff       TCut            ....  2.500e-12 Eh

Convergence Tolerance:
 Convergence Check Mode ConvCheckMode   .... Total+1el-Energy
 Convergence forced     ConvForced      .... 0
 Energy Change          TolE            ....  1.000e-08 Eh
 1-El. energy change                    ....  1.000e-05 Eh
 DIIS Error             TolErr          ....  5.000e-07


Diagonalization of the overlap matrix:
Smallest eigenvalue                        ... 1.643e-03
Time for diagonalization                   ...    0.013 sec
Threshold for overlap eigenvalues          ... 1.000e-08
Number of eigenvalues below threshold      ... 0
Time for construction of square roots      ...    0.009 sec
Total time needed                          ...    0.022 sec

---------------------
INITIAL GUESS: MOREAD
---------------------
Guess MOs are being read from file: Mo-TAEA-NH3_0_2_bp86_lanl2dz_6-31gpol.opt.gbw
Input Geometry matches current geometry (good)
Atom 0: N(Shells)= 16 and 8 - projection required
Input basis set needs projection
NBasis(read)= 182
NBasis(calc)= 300
Basis set overlap was calculated
Using GuessMode=FMatrix for the initial guess
C*T matrix was formed
Effective Fockian was calculated
Effective Fockian was diagonalized
Initial density was built
C*T matrix was formed
Effective Fockian was calculated
Effective Fockian was diagonalized
Initial density was built
                      ------------------
                      INITIAL GUESS DONE (   0.1 sec)
                      ------------------
-------------------
DFT GRID GENERATION
-------------------

General Integration Accuracy     IntAcc      ...  4.340
Radial Grid Type                 RadialGrid  ... Gauss-Chebyshev
Angular Grid (max. acc.)         AngularGrid ... Lebedev-110
Angular grid pruning method      GridPruning ... 3 (G Style)
Weight generation scheme         WeightScheme... Becke
Basis function cutoff            BFCut       ...    1.0000e-11
Integration weight cutoff        WCut        ...    1.0000e-14
Grids for H and He will be reduced by one unit

# of grid points (after initial pruning)     ...  36018 (   0.0 sec)
# of grid points (after weights+screening)   ...  32228 (   0.1 sec)
nearest neighbour list constructed           ...    0.0 sec
Grid point re-assignment to atoms done       ...    0.0 sec
Grid point division into batches done        ...    0.0 sec
Reduced shell lists constructed in    0.1 sec

Total number of grid points                  ...    32228
Total number of batches                      ...      518
Average number of points per batch           ...       62
Average number of grid points per atom       ...     1074
Average number of shells per batch           ...   108.67 (79.90%)
Average number of basis functions per batch  ...   242.15 (80.72%)
Average number of large shells per batch     ...    81.67 (75.15%)
Average number of large basis fcns per batch ...   178.70 (73.80%)
Maximum spatial batch extension              ...   4.19,  4.06,  5.18 au
Average spatial batch extension              ...   0.22,  0.22,  0.22 au

Time for grid setup =    0.165 sec

--------------------
COSX GRID GENERATION
--------------------

General Integration Accuracy     IntAcc      ...  3.340
Radial Grid Type                 RadialGrid  ... Gauss-Chebyshev
Angular Grid (max. acc.)         AngularGrid ... Lebedev-50
Angular grid pruning method      GridPruning ... 3 (G Style)
Weight generation scheme         WeightScheme... Becke
Basis function cutoff            BFCut       ...    1.0000e-11
Integration weight cutoff        WCut        ...    1.0000e-14
Grids for H and He will be reduced by one unit

# of grid points (after initial pruning)     ...  13324 (   0.0 sec)
# of grid points (after weights+screening)   ...  12003 (   0.0 sec)
nearest neighbour list constructed           ...    0.0 sec
Grid point re-assignment to atoms done       ...    0.0 sec
Grid point division into batches done        ...    0.0 sec
Reduced shell lists constructed in    0.0 sec

Total number of grid points                  ...    12003
Total number of batches                      ...      204
Average number of points per batch           ...       58
Average number of grid points per atom       ...      400
Average number of shells per batch           ...   111.74 (82.16%)
Average number of basis functions per batch  ...   250.93 (83.64%)
Average number of large shells per batch     ...    85.00 (76.07%)
Average number of large basis fcns per batch ...   186.93 (74.49%)
Maximum spatial batch extension              ...   3.78,  4.72,  4.11 au
Average spatial batch extension              ...   0.29,  0.27,  0.27 au

Overlap Fitting                  UseSFitting ... on
Constructing numerical overlap ... done (      0.0 sec)
Inverting numerical overlap    ... done (      0.0 sec)
Obtaining analytic overlap     ... done (      0.0 sec)
Final contraction and storage  ... done (      0.0 sec)


General Integration Accuracy     IntAcc      ...  3.670
Radial Grid Type                 RadialGrid  ... Gauss-Chebyshev
Angular Grid (max. acc.)         AngularGrid ... Lebedev-50
Angular grid pruning method      GridPruning ... 3 (G Style)
Weight generation scheme         WeightScheme... Becke
Basis function cutoff            BFCut       ...    1.0000e-11
Integration weight cutoff        WCut        ...    1.0000e-14
Grids for H and He will be reduced by one unit

# of grid points (after initial pruning)     ...  17018 (   0.0 sec)
# of grid points (after weights+screening)   ...  15306 (   0.0 sec)
nearest neighbour list constructed           ...    0.0 sec
Grid point re-assignment to atoms done       ...    0.0 sec
Grid point division into batches done        ...    0.0 sec
Reduced shell lists constructed in    0.0 sec

Total number of grid points                  ...    15306
Total number of batches                      ...      254
Average number of points per batch           ...       60
Average number of grid points per atom       ...      510
Average number of shells per batch           ...   110.88 (81.53%)
Average number of basis functions per batch  ...   247.91 (82.64%)
Average number of large shells per batch     ...    84.18 (75.92%)
Average number of large basis fcns per batch ...   184.97 (74.61%)
Maximum spatial batch extension              ...   5.05,  5.11,  6.17 au
Average spatial batch extension              ...   0.27,  0.27,  0.27 au

Overlap Fitting                  UseSFitting ... on
Constructing numerical overlap ... done (      0.0 sec)
Inverting numerical overlap    ... done (      0.0 sec)
Obtaining analytic overlap     ... done (      0.0 sec)
Final contraction and storage  ... done (      0.0 sec)


General Integration Accuracy     IntAcc      ...  4.010
Radial Grid Type                 RadialGrid  ... Gauss-Chebyshev
Angular Grid (max. acc.)         AngularGrid ... Lebedev-110
Angular grid pruning method      GridPruning ... 3 (G Style)
Weight generation scheme         WeightScheme... Becke
Basis function cutoff            BFCut       ...    1.0000e-11
Integration weight cutoff        WCut        ...    1.0000e-14
Grids for H and He will be reduced by one unit

# of grid points (after initial pruning)     ...  31144 (   0.0 sec)
# of grid points (after weights+screening)   ...  27912 (   0.0 sec)
nearest neighbour list constructed           ...    0.0 sec
Grid point re-assignment to atoms done       ...    0.0 sec
Grid point division into batches done        ...    0.0 sec
Reduced shell lists constructed in    0.1 sec

Total number of grid points                  ...    27912
Total number of batches                      ...      448
Average number of points per batch           ...       62
Average number of grid points per atom       ...      930
Average number of shells per batch           ...   108.98 (80.13%)
Average number of basis functions per batch  ...   242.91 (80.97%)
Average number of large shells per batch     ...    81.93 (75.18%)
Average number of large basis fcns per batch ...   180.00 (74.10%)
Maximum spatial batch extension              ...   5.16,  4.49,  4.56 au
Average spatial batch extension              ...   0.22,  0.23,  0.23 au

Overlap Fitting                  UseSFitting ... on
Constructing numerical overlap ... done (      0.0 sec)
Inverting numerical overlap    ... done (      0.0 sec)
Obtaining analytic overlap     ... done (      0.0 sec)
Final contraction and storage  ... done (      0.0 sec)

Time for X-Grid setup             =    0.466 sec
--------------
SCF ITERATIONS
--------------
               ***  Starting incremental Fock matrix formation  ***

                         ----------------------------
                         !        ITERATION     0   !
                         ----------------------------
   Total Energy        :    -580.412460979608 Eh
   Energy Change       :    -580.412460979608 Eh
   MAX-DP              :       0.097914038047
   RMS-DP              :       0.000744205976
   Actual Damping      :       0.7000
   Actual Level Shift  :       0.2500 Eh
   Int. Num. El.       :   103.00010021 (UP=   52.00001782 DN=   51.00008238)
   Exchange            :   -61.60715194
   Correlation         :    -4.04066881


                         ----------------------------
                         !        ITERATION     1   !
                         ----------------------------
   Total Energy        :    -580.513484245334 Eh
   Energy Change       :      -0.101023265726 Eh
   MAX-DP              :       0.066425671643
   RMS-DP              :       0.000541341178
   Actual Damping      :       0.7000
   Actual Level Shift  :       0.2500 Eh
   Int. Num. El.       :   103.00003998 (UP=   51.99998626 DN=   51.00005372)
   Exchange            :   -61.65542734
   Correlation         :    -4.04039356


                         ----------------------------
                         !        ITERATION     2   !
                         ----------------------------
   Total Energy        :    -580.585210862216 Eh
   Energy Change       :      -0.071726616882 Eh
   MAX-DP              :       0.045918597630
   RMS-DP              :       0.000388619491
   Actual Damping      :       0.7000
   Actual Level Shift  :       0.2500 Eh
   Int. Num. El.       :   102.99998751 (UP=   51.99995730 DN=   51.00003022)
   Exchange            :   -61.68690360
   Correlation         :    -4.03983752


                         ----------------------------
                         !        ITERATION     3   !
                         ----------------------------
   Total Energy        :    -580.635833606237 Eh
   Energy Change       :      -0.050622744021 Eh
   MAX-DP              :       0.032166865612
   RMS-DP              :       0.000278074816
   Actual Damping      :       0.7000
   Actual Level Shift  :       0.2500 Eh
   Int. Num. El.       :   102.99994401 (UP=   51.99993276 DN=   51.00001125)
   Exchange            :   -61.70575922
   Correlation         :    -4.03925715


                         ----------------------------
                         !        ITERATION     4   !
                         ----------------------------
   Total Energy        :    -580.671484089302 Eh
   Energy Change       :      -0.035650483065 Eh
   MAX-DP              :       0.022605211799
   RMS-DP              :       0.000198879796
   Actual Damping      :       0.7000
   Actual Level Shift  :       0.2500 Eh
   Int. Num. El.       :   102.99990830 (UP=   51.99991252 DN=   50.99999577)
   Exchange            :   -61.71704538
   Correlation         :    -4.03876903


                         ----------------------------
                         !        ITERATION     5   !
                         ----------------------------
   Total Energy        :    -580.696558571969 Eh
   Energy Change       :      -0.025074482667 Eh
   MAX-DP              :       0.015852356139
   RMS-DP              :       0.000142208267
   Actual Damping      :       0.7000
   Actual Level Shift  :       0.2500 Eh
   Int. Num. El.       :   102.99987952 (UP=   51.99989624 DN=   50.99998329)
   Exchange            :   -61.72404983
   Correlation         :    -4.03839769


                         ----------------------------
                         !        ITERATION     6   !
                         ----------------------------
   Total Energy        :    -580.714175070084 Eh
   Energy Change       :      -0.017616498115 Eh
   MAX-DP              :       0.011095038966
   RMS-DP              :       0.000101709334
   Actual Damping      :       0.7000
   Actual Level Shift  :       0.2500 Eh
   Int. Num. El.       :   102.99985690 (UP=   51.99988346 DN=   50.99997344)
   Exchange            :   -61.72855091
   Correlation         :    -4.03812640


                         ----------------------------
                         !        ITERATION     7   !
                         ----------------------------
   Total Energy        :    -580.726541023347 Eh
   Energy Change       :      -0.012365953262 Eh
   MAX-DP              :       0.007768728783
   RMS-DP              :       0.000072838390
   Actual Damping      :       0.7000
   Actual Level Shift  :       0.2500 Eh
   Int. Num. El.       :   102.99983949 (UP=   51.99987363 DN=   50.99996586)
   Exchange            :   -61.73148631
   Correlation         :    -4.03792982

                               ***Turning on DIIS***

                         ----------------------------
                         !        ITERATION     8   !
                         ----------------------------
   Total Energy        :    -580.735215782686 Eh
   Energy Change       :      -0.008674759339 Eh
   MAX-DP              :       0.005451868431
   RMS-DP              :       0.000052287632
   Actual Damping      :       0.7000
   Actual Level Shift  :       0.2500 Eh
   Int. Num. El.       :   102.99982628 (UP=   51.99986619 DN=   50.99996009)
   Exchange            :   -61.73339851
   Correlation         :    -4.03778696
   DIIS-Error          :       0.190486023073


                         ----------------------------
                         !        ITERATION     9   !
                         ----------------------------
   Total Energy        :    -580.741298222399 Eh
   Energy Change       :      -0.006082439713 Eh
   MAX-DP              :       0.003861308983
   RMS-DP              :       0.000038389206
   Actual Damping      :       0.7000
   Actual Level Shift  :       0.2500 Eh
   Int. Num. El.       :   102.99981631 (UP=   51.99986059 DN=   50.99995572)
   Exchange            :   -61.73463836
   Correlation         :    -4.03768300
   DIIS-Error          :       0.132904655974
   DIIS coefficients:
     -1.49602   2.49602


                         ----------------------------
                         !        ITERATION    10   !
                         ----------------------------
   Total Energy        :    -580.745561731757 Eh
   Energy Change       :      -0.004263509358 Eh
   MAX-DP              :       0.009102760038
   RMS-DP              :       0.000093441273
   Actual Damping      :       0.0000
   Actual Level Shift  :       0.2500 Eh
   Int. Num. El.       :   102.99980847 (UP=   51.99985624 DN=   50.99995223)
   Exchange            :   -61.73534743
   Correlation         :    -4.03760562
   DIIS-Error          :       0.092886644044
   DIIS coefficients:
     -0.62214  -0.52376   2.14589


                         ----------------------------
                         !        ITERATION    11   !
                         ----------------------------
   Total Energy        :    -580.755531095187 Eh
   Energy Change       :      -0.009969363430 Eh
   MAX-DP              :       0.000846467843
   RMS-DP              :       0.000012341167
   Actual Damping      :       0.0000
   Actual Level Shift  :       0.0000 Eh
   Int. Num. El.       :   102.99978834 (UP=   51.99984523 DN=   50.99994311)
   Exchange            :   -61.73698222
   Correlation         :    -4.03741987
   DIIS-Error          :       0.000199132548
   DIIS coefficients:
      0.00035   0.00020   0.00010   0.99935

               *** Restarting incremental Fock matrix formation ***
                                   *** Resetting DIIS ***

                         ----------------------------
                         !        ITERATION    12   !
                         ----------------------------
   Total Energy        :    -580.755534236534 Eh
   Energy Change       :      -0.000003141348 Eh
   MAX-DP              :       0.000281182124
   RMS-DP              :       0.000003717558
   Actual Damping      :       0.0000
   Actual Level Shift  :       0.0000 Eh
   Int. Num. El.       :   102.99978375 (UP=   51.99984360 DN=   50.99994015)
   Exchange            :   -61.73711086
   Correlation         :    -4.03742096
   DIIS-Error          :       0.000043502156


                         ----------------------------
                         !        ITERATION    13   !
                         ----------------------------
   Total Energy        :    -580.755534501050 Eh
   Energy Change       :      -0.000000264516 Eh
   MAX-DP              :       0.000098616124
   RMS-DP              :       0.000001229522
   Actual Damping      :       0.0000
   Actual Level Shift  :       0.0000 Eh
   Int. Num. El.       :   102.99978167 (UP=   51.99984311 DN=   50.99993856)
   Exchange            :   -61.73701470
   Correlation         :    -4.03741677
   DIIS-Error          :       0.000039880344
   DIIS coefficients:
      0.25256   0.74744


                         ----------------------------
                         !        ITERATION    14   !
                         ----------------------------
   Total Energy        :    -580.755534530707 Eh
   Energy Change       :      -0.000000029656 Eh
   MAX-DP              :       0.000087214171
   RMS-DP              :       0.000001048485
   Actual Damping      :       0.0000
   Actual Level Shift  :       0.0000 Eh
   Int. Num. El.       :   102.99978101 (UP=   51.99984301 DN=   50.99993799)
   Exchange            :   -61.73714357
   Correlation         :    -4.03742153
   DIIS-Error          :       0.000043087145
   DIIS coefficients:
     -0.19859   0.52316   0.67543


                         ----------------------------
                         !        ITERATION    15   !
                         ----------------------------
   Total Energy        :    -580.755534570392 Eh
   Energy Change       :      -0.000000039685 Eh
   MAX-DP              :       0.000031297016
   RMS-DP              :       0.000000415006
   Actual Damping      :       0.0000
   Actual Level Shift  :       0.0000 Eh
   Int. Num. El.       :   102.99978044 (UP=   51.99984295 DN=   50.99993749)
   Exchange            :   -61.73709349
   Correlation         :    -4.03741970
   DIIS-Error          :       0.000010222379
   DIIS coefficients:
     -0.09470   0.10363   0.24076   0.75030


                         ----------------------------
                         !        ITERATION    16   !
                         ----------------------------
   Total Energy        :    -580.755534574679 Eh
   Energy Change       :      -0.000000004287 Eh
   MAX-DP              :       0.000019413187
   RMS-DP              :       0.000000256598
   Actual Damping      :       0.0000
   Actual Level Shift  :       0.0000 Eh
   Int. Num. El.       :   102.99978028 (UP=   51.99984296 DN=   50.99993733)
   Exchange            :   -61.73708373
   Correlation         :    -4.03741936
   DIIS-Error          :       0.000009026980
   DIIS coefficients:
     -0.01932  -0.06910  -0.00736   0.58624   0.50953


                         ----------------------------
                         !        ITERATION    17   !
                         ----------------------------
   Total Energy        :    -580.755534585691 Eh
   Energy Change       :      -0.000000011013 Eh
   MAX-DP              :       0.000017180667
   RMS-DP              :       0.000000195732
   Actual Damping      :       0.0000
   Actual Level Shift  :       0.0000 Eh
   Int. Num. El.       :   102.99978017 (UP=   51.99984294 DN=   50.99993723)
   Exchange            :   -61.73709052
   Correlation         :    -4.03741974
   DIIS-Error          :       0.000004526813
   DIIS coefficients:
      0.78958  -0.04106  -0.02733   0.10701   0.17180


                         ----------------------------
                         !        ITERATION    18   !
                         ----------------------------
   Total Energy        :    -580.755534586501 Eh
   Energy Change       :      -0.000000000810 Eh
   MAX-DP              :       0.000018411296
   RMS-DP              :       0.000000188707
   Actual Damping      :       0.0000
   Actual Level Shift  :       0.0000 Eh
   Int. Num. El.       :   102.99978015 (UP=   51.99984295 DN=   50.99993720)
   Exchange            :   -61.73709115
   Correlation         :    -4.03741975
   DIIS-Error          :       0.000004215152
   DIIS coefficients:
      0.33289   0.83077  -0.00240  -0.09221  -0.06905


                         ----------------------------
                         !        ITERATION    19   !
                         ----------------------------
   Total Energy        :    -580.755534588453 Eh
   Energy Change       :      -0.000000001952 Eh
   MAX-DP              :       0.000016703947
   RMS-DP              :       0.000000181524
   Actual Damping      :       0.0000
   Actual Level Shift  :       0.0000 Eh
   Int. Num. El.       :   102.99978016 (UP=   51.99984295 DN=   50.99993720)
   Exchange            :   -61.73709160
   Correlation         :    -4.03741982
   DIIS-Error          :       0.000003877584
   DIIS coefficients:
     -0.13660   0.52623   0.74468  -0.05834  -0.07597


                         ----------------------------
                         !        ITERATION    20   !
                         ----------------------------
   Total Energy        :    -580.755534580151 Eh
   Energy Change       :       0.000000008302 Eh
   MAX-DP              :       0.000027457668
   RMS-DP              :       0.000000291094
   Actual Damping      :       0.0000
   Actual Level Shift  :       0.0000 Eh
   Int. Num. El.       :   102.99978016 (UP=   51.99984295 DN=   50.99993721)
   Exchange            :   -61.73709134
   Correlation         :    -4.03741981
   DIIS-Error          :       0.000003576125
   DIIS coefficients:
     -0.39233  -0.18530   0.68696   0.92071  -0.03004

                 **** Energy Check signals convergence ****

               *****************************************************
               *                     SUCCESS                       *
               *           SCF CONVERGED AFTER  21 CYCLES          *
               *****************************************************

Setting up the final grid:

General Integration Accuracy     IntAcc      ...  4.670
Radial Grid Type                 RadialGrid  ... Gauss-Chebyshev
Angular Grid (max. acc.)         AngularGrid ... Lebedev-302
Angular grid pruning method      GridPruning ... 3 (G Style)
Weight generation scheme         WeightScheme... Becke
Basis function cutoff            BFCut       ...    1.0000e-11
Integration weight cutoff        WCut        ...    1.0000e-14
Grids for H and He will be reduced by one unit

# of grid points (after initial pruning)     ... 140022 (   0.0 sec)
# of grid points (after weights+screening)   ... 122780 (   0.2 sec)
nearest neighbour list constructed           ...    0.0 sec
Grid point re-assignment to atoms done       ...    0.0 sec
Grid point division into batches done        ...    0.5 sec
Reduced shell lists constructed in    0.7 sec

Total number of grid points                  ...   122780
Total number of batches                      ...     1934
Average number of points per batch           ...       63
Average number of grid points per atom       ...     4093
Average number of shells per batch           ...   103.98 (76.46%)
Average number of basis functions per batch  ...   229.41 (76.47%)
Average number of large shells per batch     ...    77.44 (74.48%)
Average number of large basis fcns per batch ...   169.22 (73.76%)
Maximum spatial batch extension              ...   7.65,  4.14,  9.28 au
Average spatial batch extension              ...   0.14,  0.14,  0.15 au

Final grid set up in    1.0 sec
Final integration                            ... done (   0.7 sec)
Change in XC energy                          ...    -0.000177830
Integrated number of electrons               ...   102.999671603
Previous integrated no of electrons          ...   102.999780188
Old exchange energy                            =    -15.509104537 Eh
New exchange energy                            =    -15.508864648 Eh
Exchange energy change after final integration =      0.000239889 Eh
Total energy after final integration           =   -580.755472520 Eh
Final COS-X integration done in                =     5.305 sec

----------------
TOTAL SCF ENERGY
----------------

Total Energy       :         -580.75547252 Eh          -15803.15982 eV

Components:
Nuclear Repulsion  :          929.63104702 Eh           25296.54684 eV
Electronic Energy  :        -1510.38651954 Eh          -41099.70667 eV
One Electron Energy:        -2661.30754209 Eh          -72417.85987 eV
Two Electron Energy:         1150.92102255 Eh           31318.15321 eV

Virial components:
Potential Energy   :        -1111.00068270 Eh          -30231.86553 eV
Kinetic Energy     :          530.24521018 Eh           14428.70571 eV
Virial Ratio       :            2.09525831


DFT components:
N(Alpha)           :       51.999843141975 electrons
N(Beta)            :       50.999828460906 electrons
N(Total)           :      102.999671602881 electrons
E(X)               :      -61.737266926085 Eh       
E(C)               :       -4.037422128990 Eh       
E(XC)              :      -65.774689055075 Eh       
DFET-embed. en.    :        0.000000000000 Eh       

---------------
SCF CONVERGENCE
---------------

  Last Energy change         ...    1.6427e-09  Tolerance :   1.0000e-08
  Last MAX-Density change    ...    0.0000e+00  Tolerance :   1.0000e-07
  Last RMS-Density change    ...    0.0000e+00  Tolerance :   5.0000e-09
  Last DIIS Error            ...    3.0745e-06  Tolerance :   5.0000e-07

             **** THE GBW FILE WAS UPDATED (Mo-TAEA-NH3_0_2_b3lyp_def2-tzvp_def2-svp.epr.gbw) ****
             **** DENSITY FILE WAS UPDATED (Mo-TAEA-NH3_0_2_b3lyp_def2-tzvp_def2-svp.epr.scfp) ****
             **** ENERGY FILE WAS UPDATED (Mo-TAEA-NH3_0_2_b3lyp_def2-tzvp_def2-svp.epr.en.tmp) ****
----------------------
UHF SPIN CONTAMINATION
----------------------

Warning: in a DFT calculation there is little theoretical justification to 
         calculate <S**2> as in Hartree-Fock theory. We will do it anyways
         but you should keep in mind that the values have only limited relevance

Expectation value of <S**2>     :     0.753007
Ideal value S*(S+1) for S=0.5   :     0.750000
Deviation                       :     0.003007

             **** THE GBW FILE WAS UPDATED (Mo-TAEA-NH3_0_2_b3lyp_def2-tzvp_def2-svp.epr.gbw) ****
             **** DENSITY FILE WAS UPDATED (Mo-TAEA-NH3_0_2_b3lyp_def2-tzvp_def2-svp.epr.scfp) ****
----------------
ORBITAL ENERGIES
----------------
                 SPIN UP ORBITALS
  NO   OCC          E(Eh)            E(eV) 
   0   1.0000     -14.360223      -390.7615 
   1   1.0000     -14.342152      -390.2698 
   2   1.0000     -14.256433      -387.9373 
   3   1.0000     -14.253902      -387.8684 
   4   1.0000     -14.253893      -387.8681 
   5   1.0000     -10.203510      -277.6516 
   6   1.0000     -10.202307      -277.6189 
   7   1.0000     -10.200996      -277.5832 
   8   1.0000     -10.189840      -277.2796 
   9   1.0000     -10.189502      -277.2704 
  10   1.0000     -10.185704      -277.1671 
  11   1.0000      -2.487107       -67.6776 
  12   1.0000      -1.509793       -41.0835 
  13   1.0000      -1.486479       -40.4492 
  14   1.0000      -1.475675       -40.1551 
  15   1.0000      -0.906803       -24.6754 
  16   1.0000      -0.879385       -23.9293 
  17   1.0000      -0.804463       -21.8905 
  18   1.0000      -0.801652       -21.8141 
  19   1.0000      -0.787893       -21.4397 
  20   1.0000      -0.695187       -18.9170 
  21   1.0000      -0.693638       -18.8748 
  22   1.0000      -0.637955       -17.3596 
  23   1.0000      -0.571296       -15.5457 
  24   1.0000      -0.569413       -15.4945 
  25   1.0000      -0.539330       -14.6759 
  26   1.0000      -0.495819       -13.4919 
  27   1.0000      -0.493759       -13.4359 
  28   1.0000      -0.469684       -12.7808 
  29   1.0000      -0.467417       -12.7191 
  30   1.0000      -0.461562       -12.5598 
  31   1.0000      -0.445312       -12.1176 
  32   1.0000      -0.439772       -11.9668 
  33   1.0000      -0.410258       -11.1637 
  34   1.0000      -0.387251       -10.5376 
  35   1.0000      -0.380222       -10.3464 
  36   1.0000      -0.378573       -10.3015 
  37   1.0000      -0.354828        -9.6554 
  38   1.0000      -0.352823        -9.6008 
  39   1.0000      -0.347766        -9.4632 
  40   1.0000      -0.346690        -9.4339 
  41   1.0000      -0.332628        -9.0513 
  42   1.0000      -0.331184        -9.0120 
  43   1.0000      -0.310735        -8.4555 
  44   1.0000      -0.291113        -7.9216 
  45   1.0000      -0.289208        -7.8698 
  46   1.0000      -0.265607        -7.2275 
  47   1.0000      -0.202615        -5.5134 
  48   1.0000      -0.198746        -5.4082 
  49   1.0000      -0.170141        -4.6298 
  50   1.0000      -0.119893        -3.2625 
  51   1.0000      -0.095632        -2.6023 
  52   0.0000      -0.004911        -0.1336 
  53   0.0000       0.040421         1.0999 
  54   0.0000       0.046900         1.2762 
  55   0.0000       0.052980         1.4417 
  56   0.0000       0.062393         1.6978 
  57   0.0000       0.066007         1.7961 
  58   0.0000       0.096076         2.6144 
  59   0.0000       0.098040         2.6678 
  60   0.0000       0.100494         2.7346 
  61   0.0000       0.111337         3.0296 
  62   0.0000       0.115424         3.1408 
  63   0.0000       0.119471         3.2510 
  64   0.0000       0.129903         3.5349 
  65   0.0000       0.131719         3.5843 
  66   0.0000       0.135759         3.6942 
  67   0.0000       0.146949         3.9987 
  68   0.0000       0.148461         4.0398 
  69   0.0000       0.151223         4.1150 
  70   0.0000       0.160254         4.3607 
  71   0.0000       0.167216         4.5502 
  72   0.0000       0.175736         4.7820 
  73   0.0000       0.183129         4.9832 
  74   0.0000       0.189206         5.1486 
  75   0.0000       0.205166         5.5829 
  76   0.0000       0.209166         5.6917 
  77   0.0000       0.214566         5.8386 
  78   0.0000       0.227304         6.1853 
  79   0.0000       0.231592         6.3019 
  80   0.0000       0.250226         6.8090 
  81   0.0000       0.251974         6.8566 
  82   0.0000       0.261688         7.1209 
  83   0.0000       0.263161         7.1610 
  84   0.0000       0.271835         7.3970 
  85   0.0000       0.292129         7.9492 
  86   0.0000       0.316437         8.6107 
  87   0.0000       0.344722         9.3804 
  88   0.0000       0.350204         9.5295 
  89   0.0000       0.358519         9.7558 
  90   0.0000       0.400751        10.9050 
  91   0.0000       0.404024        10.9941 
  92   0.0000       0.449663        12.2359 
  93   0.0000       0.453624        12.3437 
  94   0.0000       0.461288        12.5523 
  95   0.0000       0.464560        12.6413 
  96   0.0000       0.481855        13.1119 
  97   0.0000       0.528254        14.3745 
  98   0.0000       0.532710        14.4958 
  99   0.0000       0.538744        14.6600 
 100   0.0000       0.551038        14.9945 
 101   0.0000       0.551739        15.0136 
 102   0.0000       0.560088        15.2408 
 103   0.0000       0.571697        15.5567 
 104   0.0000       0.579552        15.7704 
 105   0.0000       0.583507        15.8780 
 106   0.0000       0.608041        16.5456 
 107   0.0000       0.610161        16.6033 
 108   0.0000       0.618074        16.8187 
 109   0.0000       0.622024        16.9261 
 110   0.0000       0.631657        17.1883 
 111   0.0000       0.637512        17.3476 
 112   0.0000       0.644694        17.5430 
 113   0.0000       0.667407        18.1611 
 114   0.0000       0.668778        18.1984 
 115   0.0000       0.670508        18.2454 
 116   0.0000       0.682591        18.5742 
 117   0.0000       0.683919        18.6104 
 118   0.0000       0.689745        18.7689 
 119   0.0000       0.695465        18.9246 
 120   0.0000       0.699445        19.0329 
 121   0.0000       0.703563        19.1449 
 122   0.0000       0.716942        19.5090 
 123   0.0000       0.728372        19.8200 
 124   0.0000       0.733565        19.9613 
 125   0.0000       0.750255        20.4155 
 126   0.0000       0.758569        20.6417 
 127   0.0000       0.761488        20.7211 
 128   0.0000       0.770253        20.9596 
 129   0.0000       0.778228        21.1767 
 130   0.0000       0.783120        21.3098 
 131   0.0000       0.821488        22.3538 
 132   0.0000       0.824482        22.4353 
 133   0.0000       0.845152        22.9977 
 134   0.0000       0.878951        23.9175 
 135   0.0000       0.881682        23.9918 
 136   0.0000       0.889972        24.2174 
 137   0.0000       0.895263        24.3614 
 138   0.0000       0.917600        24.9692 
 139   0.0000       0.938254        25.5312 
 140   0.0000       0.945533        25.7293 
 141   0.0000       0.983395        26.7596 
 142   0.0000       0.998378        27.1673 
 143   0.0000       1.011571        27.5262 
 144   0.0000       1.031677        28.0734 
 145   0.0000       1.049108        28.5477 
 146   0.0000       1.053505        28.6673 
 147   0.0000       1.064548        28.9678 
 148   0.0000       1.099747        29.9256 
 149   0.0000       1.100487        29.9458 
 150   0.0000       1.138366        30.9765 
 151   0.0000       1.146549        31.1992 
 152   0.0000       1.149891        31.2901 
 153   0.0000       1.174877        31.9700 
 154   0.0000       1.181084        32.1389 
 155   0.0000       1.185273        32.2529 
 156   0.0000       1.205070        32.7916 
 157   0.0000       1.235236        33.6125 
 158   0.0000       1.255688        34.1690 
 159   0.0000       1.277091        34.7514 
 160   0.0000       1.289144        35.0794 
 161   0.0000       1.291372        35.1400 
 162   0.0000       1.298387        35.3309 
 163   0.0000       1.304724        35.5034 
 164   0.0000       1.328843        36.1597 
 165   0.0000       1.341710        36.5098 
 166   0.0000       1.357209        36.9315 
 167   0.0000       1.392962        37.9044 
 168   0.0000       1.410697        38.3870 
 169   0.0000       1.423134        38.7254 
 170   0.0000       1.437812        39.1249 
 171   0.0000       1.465061        39.8663 
 172   0.0000       1.479354        40.2553 
 173   0.0000       1.488883        40.5146 
 174   0.0000       1.531047        41.6619 
 175   0.0000       1.548434        42.1350 
 176   0.0000       1.565329        42.5948 
 177   0.0000       1.568392        42.6781 
 178   0.0000       1.598375        43.4940 
 179   0.0000       1.607654        43.7465 
 180   0.0000       1.616026        43.9743 
 181   0.0000       1.634942        44.4890 
 182   0.0000       1.652987        44.9801 
 183   0.0000       1.662592        45.2414 
 184   0.0000       1.697719        46.1973 
 185   0.0000       1.705551        46.4104 
 186   0.0000       1.733968        47.1837 
 187   0.0000       1.746604        47.5275 
 188   0.0000       1.752411        47.6855 
 189   0.0000       1.757652        47.8282 
 190   0.0000       1.764023        48.0015 
 191   0.0000       1.774319        48.2817 
 192   0.0000       1.788914        48.6788 
 193   0.0000       1.798385        48.9366 
 194   0.0000       1.805411        49.1277 
 195   0.0000       1.811727        49.2996 
 196   0.0000       1.823043        49.6075 
 197   0.0000       1.827105        49.7181 
 198   0.0000       1.833242        49.8851 
 199   0.0000       1.850433        50.3529 
 200   0.0000       1.855215        50.4830 
 201   0.0000       1.884350        51.2758 
 202   0.0000       1.889748        51.4227 
 203   0.0000       1.894406        51.5494 
 204   0.0000       1.898724        51.6669 
 205   0.0000       1.904787        51.8319 
 206   0.0000       1.915619        52.1267 
 207   0.0000       1.925368        52.3919 
 208   0.0000       1.930172        52.5226 
 209   0.0000       1.932423        52.5839 
 210   0.0000       1.937832        52.7311 
 211   0.0000       1.949165        53.0395 
 212   0.0000       1.965821        53.4927 
 213   0.0000       1.977230        53.8032 
 214   0.0000       1.991238        54.1843 
 215   0.0000       1.997606        54.3576 
 216   0.0000       2.026191        55.1355 
 217   0.0000       2.054370        55.9022 
 218   0.0000       2.055239        55.9259 
 219   0.0000       2.066893        56.2430 
 220   0.0000       2.068809        56.2952 
 221   0.0000       2.095457        57.0203 
 222   0.0000       2.110993        57.4430 
 223   0.0000       2.131593        58.0036 
 224   0.0000       2.137649        58.1684 
 225   0.0000       2.181812        59.3701 
 226   0.0000       2.189902        59.5903 
 227   0.0000       2.202606        59.9359 
 228   0.0000       2.217860        60.3510 
 229   0.0000       2.233924        60.7882 
 230   0.0000       2.243192        61.0404 
 231   0.0000       2.275011        61.9062 
 232   0.0000       2.287763        62.2532 
 233   0.0000       2.305357        62.7319 
 234   0.0000       2.358142        64.1683 
 235   0.0000       2.372624        64.5624 
 236   0.0000       2.382333        64.8266 
 237   0.0000       2.383484        64.8579 
 238   0.0000       2.400691        65.3261 
 239   0.0000       2.403894        65.4133 
 240   0.0000       2.416298        65.7508 
 241   0.0000       2.423530        65.9476 
 242   0.0000       2.433657        66.2232 
 243   0.0000       2.440859        66.4191 
 244   0.0000       2.460151        66.9441 
 245   0.0000       2.479584        67.4729 
 246   0.0000       2.485541        67.6350 
 247   0.0000       2.521144        68.6038 
 248   0.0000       2.556844        69.5753 
 249   0.0000       2.568765        69.8996 
 250   0.0000       2.593357        70.5688 
 251   0.0000       2.602434        70.8158 
 252   0.0000       2.625769        71.4508 
 253   0.0000       2.631342        71.6025 
 254   0.0000       2.649012        72.0833 
 255   0.0000       2.653139        72.1956 
 256   0.0000       2.667050        72.5741 
 257   0.0000       2.695144        73.3386 
 258   0.0000       2.697277        73.3966 
 259   0.0000       2.721121        74.0455 
 260   0.0000       2.727354        74.2151 
 261   0.0000       2.732658        74.3594 
 262   0.0000       2.742553        74.6287 
 263   0.0000       2.780003        75.6477 
 264   0.0000       2.789324        75.9014 
 265   0.0000       2.806198        76.3605 
 266   0.0000       2.842763        77.3555 
 267   0.0000       2.852128        77.6104 
 268   0.0000       2.860735        77.8446 
 269   0.0000       2.873333        78.1874 
 270   0.0000       2.885103        78.5077 
 271   0.0000       2.903014        78.9950 
 272   0.0000       2.926053        79.6219 
 273   0.0000       2.930347        79.7388 
 274   0.0000       2.957980        80.4907 
 275   0.0000       2.971977        80.8716 
 276   0.0000       2.982297        81.1524 
 277   0.0000       2.992609        81.4330 
 278   0.0000       2.999325        81.6158 
 279   0.0000       3.014013        82.0155 
 280   0.0000       3.032115        82.5080 
 281   0.0000       3.052878        83.0730 
 282   0.0000       3.056516        83.1720 
 283   0.0000       3.087020        84.0021 
 284   0.0000       3.093211        84.1705 
 285   0.0000       3.141453        85.4833 
 286   0.0000       3.177988        86.4775 
 287   0.0000       3.179430        86.5167 
 288   0.0000       3.201321        87.1124 
 289   0.0000       3.281061        89.2822 
 290   0.0000       3.338211        90.8373 
 291   0.0000       3.341846        90.9363 
 292   0.0000       3.415138        92.9306 
 293   0.0000       3.423054        93.1460 
 294   0.0000       3.454902        94.0127 
 295   0.0000       3.480455        94.7080 
 296   0.0000       3.530069        96.0581 
 297   0.0000       3.646515        99.2267 
 298   0.0000      24.520091       667.2256 
 299   0.0000      84.391160      2296.4002 

                 SPIN DOWN ORBITALS
  NO   OCC          E(Eh)            E(eV) 
   0   1.0000     -14.360524      -390.7697 
   1   1.0000     -14.342472      -390.2785 
   2   1.0000     -14.256854      -387.9487 
   3   1.0000     -14.254353      -387.8807 
   4   1.0000     -14.254297      -387.8791 
   5   1.0000     -10.203293      -277.6457 
   6   1.0000     -10.202176      -277.6153 
   7   1.0000     -10.201004      -277.5834 
   8   1.0000     -10.189434      -277.2686 
   9   1.0000     -10.189223      -277.2629 
  10   1.0000     -10.185718      -277.1675 
  11   1.0000      -2.460880       -66.9639 
  12   1.0000      -1.468824       -39.9687 
  13   1.0000      -1.468393       -39.9570 
  14   1.0000      -1.444716       -39.3127 
  15   1.0000      -0.906630       -24.6707 
  16   1.0000      -0.879116       -23.9220 
  17   1.0000      -0.803849       -21.8739 
  18   1.0000      -0.801683       -21.8149 
  19   1.0000      -0.787903       -21.4399 
  20   1.0000      -0.694803       -18.9065 
  21   1.0000      -0.693631       -18.8747 
  22   1.0000      -0.637788       -17.3551 
  23   1.0000      -0.570823       -15.5329 
  24   1.0000      -0.569360       -15.4931 
  25   1.0000      -0.539039       -14.6680 
  26   1.0000      -0.493870       -13.4389 
  27   1.0000      -0.493639       -13.4326 
  28   1.0000      -0.469082       -12.7644 
  29   1.0000      -0.466745       -12.7008 
  30   1.0000      -0.461149       -12.5485 
  31   1.0000      -0.444392       -12.0925 
  32   1.0000      -0.439416       -11.9571 
  33   1.0000      -0.410093       -11.1592 
  34   1.0000      -0.387136       -10.5345 
  35   1.0000      -0.379810       -10.3352 
  36   1.0000      -0.377434       -10.2705 
  37   1.0000      -0.354317        -9.6415 
  38   1.0000      -0.352189        -9.5835 
  39   1.0000      -0.347218        -9.4483 
  40   1.0000      -0.346223        -9.4212 
  41   1.0000      -0.331899        -9.0314 
  42   1.0000      -0.330360        -8.9896 
  43   1.0000      -0.309293        -8.4163 
  44   1.0000      -0.288604        -7.8533 
  45   1.0000      -0.287359        -7.8194 
  46   1.0000      -0.264796        -7.2055 
  47   1.0000      -0.201643        -5.4870 
  48   1.0000      -0.196012        -5.3337 
  49   1.0000      -0.170058        -4.6275 
  50   1.0000      -0.082573        -2.2469 
  51   0.0000      -0.004446        -0.1210 
  52   0.0000       0.007063         0.1922 
  53   0.0000       0.040714         1.1079 
  54   0.0000       0.047103         1.2817 
  55   0.0000       0.053148         1.4462 
  56   0.0000       0.071658         1.9499 
  57   0.0000       0.073773         2.0075 
  58   0.0000       0.096391         2.6229 
  59   0.0000       0.099692         2.7127 
  60   0.0000       0.102406         2.7866 
  61   0.0000       0.113117         3.0781 
  62   0.0000       0.116107         3.1594 
  63   0.0000       0.121390         3.3032 
  64   0.0000       0.130926         3.5627 
  65   0.0000       0.133043         3.6203 
  66   0.0000       0.136767         3.7216 
  67   0.0000       0.148032         4.0282 
  68   0.0000       0.149191         4.0597 
  69   0.0000       0.155358         4.2275 
  70   0.0000       0.162106         4.4111 
  71   0.0000       0.168380         4.5818 
  72   0.0000       0.176641         4.8066 
  73   0.0000       0.183575         4.9953 
  74   0.0000       0.190898         5.1946 
  75   0.0000       0.205802         5.6002 
  76   0.0000       0.209883         5.7112 
  77   0.0000       0.215453         5.8628 
  78   0.0000       0.227865         6.2005 
  79   0.0000       0.233422         6.3517 
  80   0.0000       0.251031         6.8309 
  81   0.0000       0.252457         6.8697 
  82   0.0000       0.263538         7.1712 
  83   0.0000       0.264135         7.1875 
  84   0.0000       0.273966         7.4550 
  85   0.0000       0.292973         7.9722 
  86   0.0000       0.324155         8.8207 
  87   0.0000       0.348749         9.4899 
  88   0.0000       0.361789         9.8448 
  89   0.0000       0.363557         9.8929 
  90   0.0000       0.406435        11.0597 
  91   0.0000       0.411035        11.1848 
  92   0.0000       0.452559        12.3148 
  93   0.0000       0.456740        12.4285 
  94   0.0000       0.463629        12.6160 
  95   0.0000       0.466198        12.6859 
  96   0.0000       0.482131        13.1195 
  97   0.0000       0.529287        14.4026 
  98   0.0000       0.533424        14.5152 
  99   0.0000       0.539352        14.6765 
 100   0.0000       0.551799        15.0152 
 101   0.0000       0.554446        15.0872 
 102   0.0000       0.560691        15.2572 
 103   0.0000       0.575757        15.6672 
 104   0.0000       0.580394        15.7933 
 105   0.0000       0.583948        15.8900 
 106   0.0000       0.608961        16.5707 
 107   0.0000       0.610879        16.6229 
 108   0.0000       0.618828        16.8392 
 109   0.0000       0.623528        16.9670 
 110   0.0000       0.634603        17.2684 
 111   0.0000       0.638896        17.3852 
 112   0.0000       0.645519        17.5655 
 113   0.0000       0.668031        18.1780 
 114   0.0000       0.669281        18.2121 
 115   0.0000       0.671268        18.2661 
 116   0.0000       0.682919        18.5832 
 117   0.0000       0.684121        18.6159 
 118   0.0000       0.691091        18.8056 
 119   0.0000       0.696202        18.9446 
 120   0.0000       0.700712        19.0673 
 121   0.0000       0.704269        19.1641 
 122   0.0000       0.717596        19.5268 
 123   0.0000       0.728995        19.8370 
 124   0.0000       0.734315        19.9817 
 125   0.0000       0.751140        20.4396 
 126   0.0000       0.759717        20.6730 
 127   0.0000       0.762123        20.7384 
 128   0.0000       0.770930        20.9781 
 129   0.0000       0.778834        21.1932 
 130   0.0000       0.783853        21.3297 
 131   0.0000       0.825528        22.4638 
 132   0.0000       0.828265        22.5382 
 133   0.0000       0.846230        23.0271 
 134   0.0000       0.882574        24.0160 
 135   0.0000       0.885182        24.0870 
 136   0.0000       0.891725        24.2651 
 137   0.0000       0.898896        24.4602 
 138   0.0000       0.920677        25.0529 
 139   0.0000       0.941230        25.6122 
 140   0.0000       0.949694        25.8425 
 141   0.0000       0.986512        26.8443 
 142   0.0000       1.002118        27.2690 
 143   0.0000       1.014062        27.5940 
 144   0.0000       1.033705        28.1285 
 145   0.0000       1.053291        28.6615 
 146   0.0000       1.058357        28.7994 
 147   0.0000       1.067848        29.0576 
 148   0.0000       1.102288        29.9948 
 149   0.0000       1.107352        30.1326 
 150   0.0000       1.145240        31.1636 
 151   0.0000       1.150686        31.3118 
 152   0.0000       1.152736        31.3675 
 153   0.0000       1.181442        32.1487 
 154   0.0000       1.189396        32.3651 
 155   0.0000       1.197834        32.5947 
 156   0.0000       1.209750        32.9190 
 157   0.0000       1.238422        33.6992 
 158   0.0000       1.262873        34.3645 
 159   0.0000       1.280380        34.8409 
 160   0.0000       1.291029        35.1307 
 161   0.0000       1.295932        35.2641 
 162   0.0000       1.305304        35.5191 
 163   0.0000       1.306850        35.5612 
 164   0.0000       1.332733        36.2655 
 165   0.0000       1.344343        36.5814 
 166   0.0000       1.359847        37.0033 
 167   0.0000       1.396957        38.0131 
 168   0.0000       1.413944        38.4754 
 169   0.0000       1.429949        38.9109 
 170   0.0000       1.443099        39.2687 
 171   0.0000       1.467640        39.9365 
 172   0.0000       1.483631        40.3717 
 173   0.0000       1.494264        40.6610 
 174   0.0000       1.534414        41.7535 
 175   0.0000       1.553401        42.2702 
 176   0.0000       1.566996        42.6401 
 177   0.0000       1.569570        42.7102 
 178   0.0000       1.600028        43.5390 
 179   0.0000       1.609654        43.8009 
 180   0.0000       1.618572        44.0436 
 181   0.0000       1.636983        44.5446 
 182   0.0000       1.655982        45.0616 
 183   0.0000       1.667524        45.3756 
 184   0.0000       1.701959        46.3127 
 185   0.0000       1.710063        46.5332 
 186   0.0000       1.735255        47.2187 
 187   0.0000       1.747863        47.5618 
 188   0.0000       1.753286        47.7094 
 189   0.0000       1.758601        47.8540 
 190   0.0000       1.764452        48.0132 
 191   0.0000       1.775859        48.3236 
 192   0.0000       1.790266        48.7156 
 193   0.0000       1.799812        48.9754 
 194   0.0000       1.806524        49.1580 
 195   0.0000       1.814221        49.3675 
 196   0.0000       1.824687        49.6523 
 197   0.0000       1.828372        49.7525 
 198   0.0000       1.835349        49.9424 
 199   0.0000       1.851034        50.3692 
 200   0.0000       1.856409        50.5155 
 201   0.0000       1.885656        51.3113 
 202   0.0000       1.892051        51.4853 
 203   0.0000       1.895308        51.5740 
 204   0.0000       1.899049        51.6758 
 205   0.0000       1.905456        51.8501 
 206   0.0000       1.918212        52.1972 
 207   0.0000       1.926483        52.4223 
 208   0.0000       1.932604        52.5888 
 209   0.0000       1.934215        52.6327 
 210   0.0000       1.940192        52.7953 
 211   0.0000       1.951322        53.0982 
 212   0.0000       1.966584        53.5135 
 213   0.0000       1.978526        53.8384 
 214   0.0000       1.992496        54.2186 
 215   0.0000       1.999350        54.4051 
 216   0.0000       2.029722        55.2316 
 217   0.0000       2.055228        55.9256 
 218   0.0000       2.056478        55.9596 
 219   0.0000       2.068703        56.2923 
 220   0.0000       2.070356        56.3373 
 221   0.0000       2.097201        57.0678 
 222   0.0000       2.112719        57.4900 
 223   0.0000       2.133706        58.0611 
 224   0.0000       2.139489        58.2184 
[...]
  69( 0) :     0.151208 a.u.     4.115 eV
  70( 0) :     0.160249 a.u.     4.361 eV
  71( 0) :     0.167213 a.u.     4.550 eV
  72( 0) :     0.175734 a.u.     4.782 eV
  73( 0) :     0.183129 a.u.     4.983 eV
  74( 0) :     0.189202 a.u.     5.148 eV
  75( 0) :     0.205165 a.u.     5.583 eV
  76( 0) :     0.209164 a.u.     5.692 eV
  77( 0) :     0.214565 a.u.     5.839 eV
  78( 0) :     0.227299 a.u.     6.185 eV
  79( 0) :     0.231590 a.u.     6.302 eV
  80( 0) :     0.250224 a.u.     6.809 eV
  81( 0) :     0.251973 a.u.     6.857 eV
  82( 0) :     0.261683 a.u.     7.121 eV
  83( 0) :     0.263158 a.u.     7.161 eV
  84( 0) :     0.271832 a.u.     7.397 eV
  85( 0) :     0.292127 a.u.     7.949 eV
  86( 0) :     0.316422 a.u.     8.610 eV
  87( 0) :     0.344715 a.u.     9.380 eV
  88( 0) :     0.350185 a.u.     9.529 eV
  89( 0) :     0.358510 a.u.     9.756 eV
  90( 0) :     0.400744 a.u.    10.905 eV
  91( 0) :     0.404013 a.u.    10.994 eV
  92( 0) :     0.449659 a.u.    12.236 eV
  93( 0) :     0.453622 a.u.    12.344 eV
  94( 0) :     0.461285 a.u.    12.552 eV
  95( 0) :     0.464557 a.u.    12.641 eV
  96( 0) :     0.481855 a.u.    13.112 eV
  97( 0) :     0.528253 a.u.    14.374 eV
  98( 0) :     0.532710 a.u.    14.496 eV
  99( 0) :     0.538744 a.u.    14.660 eV
 100( 0) :     0.551037 a.u.    14.994 eV
 101( 0) :     0.551736 a.u.    15.014 eV
 102( 0) :     0.560087 a.u.    15.241 eV
 103( 0) :     0.571692 a.u.    15.557 eV
 104( 0) :     0.579551 a.u.    15.770 eV
 105( 0) :     0.583507 a.u.    15.878 eV
 106( 0) :     0.608041 a.u.    16.546 eV
 107( 0) :     0.610161 a.u.    16.603 eV
 108( 0) :     0.618074 a.u.    16.819 eV
 109( 0) :     0.622023 a.u.    16.926 eV
 110( 0) :     0.631656 a.u.    17.188 eV
 111( 0) :     0.637511 a.u.    17.348 eV
 112( 0) :     0.644692 a.u.    17.543 eV
 113( 0) :     0.667406 a.u.    18.161 eV
 114( 0) :     0.668778 a.u.    18.198 eV
 115( 0) :     0.670507 a.u.    18.245 eV
 116( 0) :     0.682591 a.u.    18.574 eV
 117( 0) :     0.683919 a.u.    18.610 eV
 118( 0) :     0.689744 a.u.    18.769 eV
 119( 0) :     0.695464 a.u.    18.925 eV
 120( 0) :     0.699444 a.u.    19.033 eV
 121( 0) :     0.703563 a.u.    19.145 eV
 122( 0) :     0.716942 a.u.    19.509 eV
 123( 0) :     0.728371 a.u.    19.820 eV
 124( 0) :     0.733565 a.u.    19.961 eV
 125( 0) :     0.750254 a.u.    20.415 eV
 126( 0) :     0.758569 a.u.    20.642 eV
 127( 0) :     0.761487 a.u.    20.721 eV
 128( 0) :     0.770252 a.u.    20.960 eV
 129( 0) :     0.778228 a.u.    21.177 eV
 130( 0) :     0.783119 a.u.    21.310 eV
 131( 0) :     0.821480 a.u.    22.354 eV
 132( 0) :     0.824479 a.u.    22.435 eV
 133( 0) :     0.845151 a.u.    22.998 eV
 134( 0) :     0.878951 a.u.    23.917 eV
 135( 0) :     0.881676 a.u.    23.992 eV
 136( 0) :     0.889969 a.u.    24.217 eV
 137( 0) :     0.895262 a.u.    24.361 eV
 138( 0) :     0.917599 a.u.    24.969 eV
 139( 0) :     0.938249 a.u.    25.531 eV
 140( 0) :     0.945530 a.u.    25.729 eV
 141( 0) :     0.983393 a.u.    26.759 eV
 142( 0) :     0.998376 a.u.    27.167 eV
 143( 0) :     1.011566 a.u.    27.526 eV
 144( 0) :     1.031676 a.u.    28.073 eV
 145( 0) :     1.049103 a.u.    28.548 eV
 146( 0) :     1.053503 a.u.    28.667 eV
 147( 0) :     1.064547 a.u.    28.968 eV
 148( 0) :     1.099744 a.u.    29.926 eV
 149( 0) :     1.100481 a.u.    29.946 eV
 150( 0) :     1.138359 a.u.    30.976 eV
 151( 0) :     1.146543 a.u.    31.199 eV
 152( 0) :     1.149887 a.u.    31.290 eV
 153( 0) :     1.174868 a.u.    31.970 eV
 154( 0) :     1.181077 a.u.    32.139 eV
 155( 0) :     1.185261 a.u.    32.253 eV
 156( 0) :     1.205067 a.u.    32.792 eV
 157( 0) :     1.235235 a.u.    33.612 eV
 158( 0) :     1.255680 a.u.    34.169 eV
 159( 0) :     1.277090 a.u.    34.751 eV
 160( 0) :     1.289142 a.u.    35.079 eV
 161( 0) :     1.291371 a.u.    35.140 eV
 162( 0) :     1.298384 a.u.    35.331 eV
 163( 0) :     1.304724 a.u.    35.503 eV
 164( 0) :     1.328842 a.u.    36.160 eV
 165( 0) :     1.341708 a.u.    36.510 eV
 166( 0) :     1.357209 a.u.    36.932 eV
 167( 0) :     1.392959 a.u.    37.904 eV
 168( 0) :     1.410695 a.u.    38.387 eV
 169( 0) :     1.423131 a.u.    38.725 eV
 170( 0) :     1.437811 a.u.    39.125 eV
 171( 0) :     1.465060 a.u.    39.866 eV
 172( 0) :     1.479354 a.u.    40.255 eV
 173( 0) :     1.488881 a.u.    40.515 eV
 174( 0) :     1.531046 a.u.    41.662 eV
 175( 0) :     1.548433 a.u.    42.135 eV
 176( 0) :     1.565328 a.u.    42.595 eV
 177( 0) :     1.568392 a.u.    42.678 eV
 178( 0) :     1.598375 a.u.    43.494 eV
 179( 0) :     1.607653 a.u.    43.746 eV
 180( 0) :     1.616024 a.u.    43.974 eV
 181( 0) :     1.634942 a.u.    44.489 eV
 182( 0) :     1.652986 a.u.    44.980 eV
 183( 0) :     1.662591 a.u.    45.241 eV
 184( 0) :     1.697717 a.u.    46.197 eV
 185( 0) :     1.705550 a.u.    46.410 eV
 186( 0) :     1.733968 a.u.    47.184 eV
 187( 0) :     1.746604 a.u.    47.528 eV
 188( 0) :     1.752411 a.u.    47.686 eV
 189( 0) :     1.757652 a.u.    47.828 eV
 190( 0) :     1.764023 a.u.    48.002 eV
 191( 0) :     1.774318 a.u.    48.282 eV
 192( 0) :     1.788913 a.u.    48.679 eV
 193( 0) :     1.798385 a.u.    48.937 eV
 194( 0) :     1.805411 a.u.    49.128 eV
 195( 0) :     1.811727 a.u.    49.300 eV
 196( 0) :     1.823043 a.u.    49.608 eV
 197( 0) :     1.827105 a.u.    49.718 eV
 198( 0) :     1.833241 a.u.    49.885 eV
 199( 0) :     1.850433 a.u.    50.353 eV
 200( 0) :     1.855215 a.u.    50.483 eV
 201( 0) :     1.884350 a.u.    51.276 eV
 202( 0) :     1.889748 a.u.    51.423 eV
 203( 0) :     1.894406 a.u.    51.549 eV
 204( 0) :     1.898724 a.u.    51.667 eV
 205( 0) :     1.904787 a.u.    51.832 eV
 206( 0) :     1.915615 a.u.    52.127 eV
 207( 0) :     1.925368 a.u.    52.392 eV
 208( 0) :     1.930171 a.u.    52.523 eV
 209( 0) :     1.932422 a.u.    52.584 eV
 210( 0) :     1.937829 a.u.    52.731 eV
 211( 0) :     1.949164 a.u.    53.039 eV
 212( 0) :     1.965820 a.u.    53.493 eV
 213( 0) :     1.977229 a.u.    53.803 eV
 214( 0) :     1.991237 a.u.    54.184 eV
 215( 0) :     1.997606 a.u.    54.358 eV
 216( 0) :     2.026189 a.u.    55.135 eV
 217( 0) :     2.054369 a.u.    55.902 eV
 218( 0) :     2.055239 a.u.    55.926 eV
 219( 0) :     2.066893 a.u.    56.243 eV
 220( 0) :     2.068809 a.u.    56.295 eV
 221( 0) :     2.095457 a.u.    57.020 eV
 222( 0) :     2.110993 a.u.    57.443 eV
 223( 0) :     2.131592 a.u.    58.004 eV
 224( 0) :     2.137648 a.u.    58.168 eV
 225( 0) :     2.181812 a.u.    59.370 eV
 226( 0) :     2.189902 a.u.    59.590 eV
 227( 0) :     2.202605 a.u.    59.936 eV
 228( 0) :     2.217858 a.u.    60.351 eV
 229( 0) :     2.233923 a.u.    60.788 eV
 230( 0) :     2.243191 a.u.    61.040 eV
 231( 0) :     2.275011 a.u.    61.906 eV
 232( 0) :     2.287762 a.u.    62.253 eV
 233( 0) :     2.305356 a.u.    62.732 eV
 234( 0) :     2.358141 a.u.    64.168 eV
 235( 0) :     2.372621 a.u.    64.562 eV
 236( 0) :     2.382332 a.u.    64.827 eV
 237( 0) :     2.383483 a.u.    64.858 eV
 238( 0) :     2.400691 a.u.    65.326 eV
 239( 0) :     2.403893 a.u.    65.413 eV
 240( 0) :     2.416297 a.u.    65.751 eV
 241( 0) :     2.423529 a.u.    65.948 eV
 242( 0) :     2.433655 a.u.    66.223 eV
 243( 0) :     2.440857 a.u.    66.419 eV
 244( 0) :     2.460150 a.u.    66.944 eV
 245( 0) :     2.479581 a.u.    67.473 eV
 246( 0) :     2.485541 a.u.    67.635 eV
 247( 0) :     2.521139 a.u.    68.604 eV
 248( 0) :     2.556835 a.u.    69.575 eV
 249( 0) :     2.568762 a.u.    69.900 eV
 250( 0) :     2.593349 a.u.    70.569 eV
 251( 0) :     2.602431 a.u.    70.816 eV
 252( 0) :     2.625765 a.u.    71.451 eV
 253( 0) :     2.631340 a.u.    71.602 eV
 254( 0) :     2.649009 a.u.    72.083 eV
 255( 0) :     2.653139 a.u.    72.196 eV
 256( 0) :     2.667048 a.u.    72.574 eV
 257( 0) :     2.695132 a.u.    73.338 eV
 258( 0) :     2.697274 a.u.    73.397 eV
 259( 0) :     2.721118 a.u.    74.045 eV
 260( 0) :     2.727352 a.u.    74.215 eV
 261( 0) :     2.732656 a.u.    74.359 eV
 262( 0) :     2.742552 a.u.    74.629 eV
 263( 0) :     2.780001 a.u.    75.648 eV
 264( 0) :     2.789322 a.u.    75.901 eV
 265( 0) :     2.806190 a.u.    76.360 eV
 266( 0) :     2.842761 a.u.    77.355 eV
 267( 0) :     2.852127 a.u.    77.610 eV
 268( 0) :     2.860729 a.u.    77.844 eV
 269( 0) :     2.873331 a.u.    78.187 eV
 270( 0) :     2.885100 a.u.    78.508 eV
 271( 0) :     2.903008 a.u.    78.995 eV
 272( 0) :     2.926050 a.u.    79.622 eV
 273( 0) :     2.930346 a.u.    79.739 eV
 274( 0) :     2.957979 a.u.    80.491 eV
 275( 0) :     2.971976 a.u.    80.872 eV
 276( 0) :     2.982294 a.u.    81.152 eV
 277( 0) :     2.992609 a.u.    81.433 eV
 278( 0) :     2.999320 a.u.    81.616 eV
 279( 0) :     3.014009 a.u.    82.015 eV
 280( 0) :     3.032114 a.u.    82.508 eV
 281( 0) :     3.052875 a.u.    83.073 eV
 282( 0) :     3.056515 a.u.    83.172 eV
 283( 0) :     3.087018 a.u.    84.002 eV
 284( 0) :     3.093210 a.u.    84.171 eV
 285( 0) :     3.141452 a.u.    85.483 eV
 286( 0) :     3.177988 a.u.    86.477 eV
 287( 0) :     3.179430 a.u.    86.517 eV
 288( 0) :     3.201317 a.u.    87.112 eV
 289( 0) :     3.281059 a.u.    89.282 eV
 290( 0) :     3.338211 a.u.    90.837 eV
 291( 0) :     3.341846 a.u.    90.936 eV
 292( 0) :     3.415135 a.u.    92.931 eV
 293( 0) :     3.423052 a.u.    93.146 eV
 294( 0) :     3.454899 a.u.    94.013 eV
 295( 0) :     3.480453 a.u.    94.708 eV
 296( 0) :     3.530067 a.u.    96.058 eV
 297( 0) :     3.646513 a.u.    99.227 eV
 298( 0) :    24.520091 a.u.   667.226 eV
 299( 0) :    84.391160 a.u.  2296.400 eV
-------
TIMINGS
-------

Total SCF time: 0 days 0 hours 1 min 14 sec 

Total time                  ....      74.523 sec
Sum of individual times     ....      73.826 sec  ( 99.1%)

Fock matrix formation       ....      69.916 sec  ( 93.8%)
  Split-RI-J                ....      11.111 sec  ( 15.9% of F)
  Chain of spheres X        ....      53.134 sec  ( 76.0% of F)
  COS-X 1 center corr.      ....       0.000 sec  (  0.0% of F)
  XC integration            ....       4.473 sec  (  6.4% of F)
    Basis function eval.    ....       0.819 sec  ( 18.3% of XC)
    Density eval.           ....       1.073 sec  ( 24.0% of XC)
    XC-Functional eval.     ....       0.181 sec  (  4.1% of XC)
    XC-Potential eval.      ....       1.537 sec  ( 34.4% of XC)
Diagonalization             ....       0.705 sec  (  0.9%)
Density matrix formation    ....       0.045 sec  (  0.1%)
Population analysis         ....       1.049 sec  (  1.4%)
Initial guess               ....       0.087 sec  (  0.1%)
Orbital Transformation      ....       0.000 sec  (  0.0%)
Orbital Orthonormalization  ....       0.000 sec  (  0.0%)
DIIS solution               ....       0.427 sec  (  0.6%)
Grid generation             ....       1.597 sec  (  2.1%)

-------------------------   --------------------
FINAL SINGLE POINT ENERGY      -580.755472519550
-------------------------   --------------------

   --->>> g-tensor requested, so NeedSOC=true

                            ***************************************
                            *     ORCA property calculations      *
                            ***************************************

                                    ---------------------
                                    Active property flags
                                    ---------------------
   (+) Dipole Moment
   (+) g-tensor
   (+) D-tensor
   (+) Spin-Orbit Integrals are needed


   WARNING: The D-tensor cannot be calculated for Mult<3!
        --> Skipping D-tensor calculation

------------------------------------------------------------------------------
                       ORCA ELECTRIC PROPERTIES CALCULATION
------------------------------------------------------------------------------

Dipole Moment Calculation                       ... on
Quadrupole Moment Calculation                   ... off
Polarizability Calculation                      ... off
GBWName                                         ... Mo-TAEA-NH3_0_2_b3lyp_def2-tzvp_def2-svp.epr.gbw
Electron density file                           ... Mo-TAEA-NH3_0_2_b3lyp_def2-tzvp_def2-svp.epr.scfp
The origin for moment calculation is the CENTER OF MASS  = (13.875726, 30.034957 26.912410)

-------------
DIPOLE MOMENT
-------------
                                X             Y             Z
Electronic contribution:    -13.47209     -11.54204     -52.06291
Nuclear contribution   :     13.08235      11.34227      51.34275
                        -----------------------------------------
Total Dipole Moment    :     -0.38974      -0.19976      -0.72016
                        -----------------------------------------
Magnitude (a.u.)       :      0.84287
Magnitude (Debye)      :      2.14241



--------------------
Rotational spectrum 
--------------------
 
Rotational constants in cm-1:     0.029881     0.022964     0.022877 
Rotational constants in MHz :   895.812205   688.437631   685.832232 

 Dipole components along the rotational axes: 
x,y,z [a.u.] :    -0.818488    -0.042218     0.196786 
x,y,z [Debye]:    -2.080431    -0.107310     0.500191 

 


           ************************************************************
           *        Program running with 8 parallel MPI-processes     *
           *              working on a common directory               *
           ************************************************************
------------------------------------------------------------------------------
                         ORCA SPIN-ORBIT COUPLING CALCULATION
------------------------------------------------------------------------------

GBW file                                    ... Mo-TAEA-NH3_0_2_b3lyp_def2-tzvp_def2-svp.epr.gbw
Input density                               ... Mo-TAEA-NH3_0_2_b3lyp_def2-tzvp_def2-svp.epr.scfp
Output integrals                            ... Mo-TAEA-NH3_0_2_b3lyp_def2-tzvp_def2-svp.epr
Operator type                               ... Mean-field/Effective potential
   One-Electron Terms                       ... 1
   Coulomb Contribution                     ... 3
   Exchange Contribution                    ... 3
   Correlation Contribution                 ... 0
   Maximum number of centers                ... 4
Warning (ORCA_SOC): the V**-1 matrix does not seem to exist - doing it now
Calculating two index integrals             ... done
Cholesky decomposition                      ... done
Making three index integrals                ...
  Angular momenta (0,0)
  Angular momenta (0,1)
  Angular momenta (0,2)
  Angular momenta (0,3)
  Angular momenta (0,4)
  Angular momenta (1,1)
  Angular momenta (1,2)
  Angular momenta (1,3)
  Angular momenta (1,4)
  Angular momenta (2,2)
  Angular momenta (2,3)
  Angular momenta (2,4)
  Angular momenta (3,3)
  Angular momenta (3,4)
  Angular momenta (4,4)
                                                done
Making fit coefficients                     ... done
Making SOC integrals                        ... done
One-Center Exchange (+SOO)                  ... done
Total time for SOC: 35.241


           ************************************************************
           *        Program running with 8 parallel MPI-processes     *
           *              working on a common directory               *
           ************************************************************
Warning: the D-tensor cannot be calculated for Mult<3!
The multiplicity was read as MULT=2
------------------------------------------------------------------------------
                                ORCA EPR/NMR CALCULATION
------------------------------------------------------------------------------

GBWName                      ... Mo-TAEA-NH3_0_2_b3lyp_def2-tzvp_def2-svp.epr.gbw
Electron density file        ... Mo-TAEA-NH3_0_2_b3lyp_def2-tzvp_def2-svp.epr.scfp
Spin density file            ... Mo-TAEA-NH3_0_2_b3lyp_def2-tzvp_def2-svp.epr.scfr
Spin-orbit integrals         ... Mo-TAEA-NH3_0_2_b3lyp_def2-tzvp_def2-svp.epr
Origin for angular momentum  ... Center of electronic charge
Coordinates of the origin    ...   14.00652248   30.14701559   27.41787549 (bohrs)
Details of the CP(SCF) procedure:
       Solver   = POPLE   
       MaxIter  =    64   
       Tolerance=    1.000e-06
       COSX Grid=     1   
       Op-0     =   0- 51 =>  52-299
       Op-1     =   0- 50 =>  51-299
Multiplicity                 ... 2
g-tensor                     ... 1
NMR chemical shifts          ... 0
Forming RHS of the CP-SCF equations         ... 
Using LibInt in CPSCF-CP

Calculating angular momentum integrals               ... done

------------------------------------------------------------------------------
                           ORCA CP-SCF CALCULATION
------------------------------------------------------------------------------

Input orbitals are from        ... Mo-TAEA-NH3_0_2_b3lyp_def2-tzvp_def2-svp.epr.gbw
Input Perturbation             ... Mo-TAEA-NH3_0_2_b3lyp_def2-tzvp_def2-svp.epr.pin.tmp
Wavefunction output            ... Mo-TAEA-NH3_0_2_b3lyp_def2-tzvp_def2-svp.epr.pout.tmp
Perturbation mode              ... Imaginary perturbation
Solver                         ... POPLE
Max. number of iterations      ... 64
Convergence tolerance          ... 1.000e-06
Integral handling              ... Direct
COSX GridX                     ... 1
Number of perturbations        ... 3
Number of operators            ... 2
Orbital ranges used for CP-SCF:
 Operator 0:  Orbitals   0... 51  to  52...299
 Operator 1:  Orbitals   0... 50  to  51...299
DFT calculation                         ... on
The RIJCOSX approximation is active
Variables per vector in CP-SCF ... 25595
Number of vectors sought       ... 3
     CP-SCF ITERATION   0: 
     CP-SCF ITERATION   1:      7.143393916460
     CP-SCF ITERATION   2:      0.448186684009
     CP-SCF ITERATION   3:      0.015328994665
     CP-SCF ITERATION   4:      0.000478349773
     CP-SCF ITERATION   5:      0.000009197471
     CP-SCF ITERATION   6:      0.000000182548

Forming final perturbed densities           ... done
Transforming perturbed density to AO basis  ... done

Magnetic field perturbation calculated in 26.660 sec

-------------------
ELECTRONIC G-MATRIX
-------------------

 The g-matrix: 
              2.0013148    0.0001422    0.0025372
              0.0001190    2.0020593    0.0024726
              0.0024299    0.0024089    2.0119164

 gel          2.0023193    2.0023193    2.0023193
 gRMC        -0.0001956   -0.0001956   -0.0001956
 gDSO(tot)    0.0003914    0.0002547    0.0002620
 gPSO(tot)   -0.0019199   -0.0006843    0.0106154
             ----------   ----------   ----------
 g(tot)       2.0005953    2.0016941    2.0130011 iso=  2.0050968
 Delta-g     -0.0017240   -0.0006252    0.0106819 iso=  0.0027776
 Orientation: 
  X           0.8825197    0.4230896   -0.2053145
  Y           0.3809473   -0.8991520   -0.2154179
  Z          -0.2757501    0.1118966   -0.9546942

Notes:  (1) The g-matrix conforms to the "BgS" spin Hamiltonian convention. 
        (2) The principal values are square roots of the eigenvalues of g*gT.
        (3) Orientations are eigenvectors of g*gT written as column vectors.
        (4) Individual contributions are projections of the full matrices onto the eigenvectors of g*gT.
        (5) Tensor is right-handed.


Timings for individual modules:

Sum of individual times         ...      144.620 sec (=   2.410 min)
GTO integral calculation        ...        3.753 sec (=   0.063 min)   2.6 %
Spin-Orbit-Coupling Matrices    ...       35.239 sec (=   0.587 min)  24.4 %
SCF iterations                  ...       76.477 sec (=   1.275 min)  52.9 %
EPR/NMR calculation             ...       29.150 sec (=   0.486 min)  20.2 %
                             ****ORCA TERMINATED NORMALLY****
TOTAL RUN TIME: 0 days 0 hours 2 minutes 27 seconds 77 msec
