
                                 *****************
                                 * O   R   C   A *
                                 *****************

           --- An Ab Initio, DFT and Semiempirical electronic structure package ---

                  #######################################################
                  #                        -***-                        #
                  #          Department of theory and spectroscopy      #
                  #               Directorship: Frank Neese             #
                  #        Max Planck Institute fuer Kohlenforschung    #
                  #                Kaiser Wilhelm Platz 1               #
                  #                 D-45470 Muelheim/Ruhr               #
                  #                      Germany                        #
                  #                                                     #
                  #                  All rights reserved                #
                  #                        -***-                        #
                  #######################################################


                         Program Version 4.2.0 -  RELEASE  -


 With contributions from (in alphabetic order):
   Daniel Aravena         : Magnetic Suceptibility
   Michael Atanasov       : Ab Initio Ligand Field Theory (pilot matlab implementation)
   Alexander A. Auer      : GIAO ZORA, VPT2
   Ute Becker             : Parallelization
   Giovanni Bistoni       : ED, misc. LED, open-shell LED, HFLED
   Martin Brehm           : Molecular dynamics
   Dmytro Bykov           : SCF Hessian
   Vijay G. Chilkuri      : MRCI spin determinant printing, contributions to CSF-ICE
   Dipayan Datta          : RHF DLPNO-CCSD density
   Achintya Kumar Dutta   : EOM-CC, STEOM-CC
   Dmitry Ganyushin       : Spin-Orbit,Spin-Spin,Magnetic field MRCI
   Miquel Garcia          : C-PCM Hessian, Gaussian charge scheme
   Yang Guo               : DLPNO-NEVPT2, CIM, IAO-localization
   Andreas Hansen         : Spin unrestricted coupled pair/coupled cluster methods
   Benjamin Helmich-Paris : CASSCF linear response (MC-RPA)
   Lee Huntington         : MR-EOM, pCC
   Robert Izsak           : Overlap fitted RIJCOSX, COSX-SCS-MP3, EOM
   Christian Kollmar      : KDIIS, OOCD, Brueckner-CCSD(T), CCSD density
   Simone Kossmann        : Meta GGA functionals, TD-DFT gradient, OOMP2, MP2 Hessian
   Martin Krupicka        : AUTO-CI
   Lucas Lang             : DCDCAS
   Dagmar Lenk            : GEPOL surface, SMD
   Dimitrios Liakos       : Extrapolation schemes; Compound Job, initial MDCI parallelization
   Dimitrios Manganas     : Further ROCIS development; embedding schemes
   Dimitrios Pantazis     : SARC Basis sets
   Taras Petrenko         : DFT Hessian,TD-DFT gradient, ASA, ECA, R-Raman, ABS, FL, XAS/XES, NRVS
   Peter Pinski           : DLPNO-MP2, DLPNO-MP2 Gradient
   Christoph Reimann      : Effective Core Potentials
   Marius Retegan         : Local ZFS, SOC
   Christoph Riplinger    : Optimizer, TS searches, QM/MM, DLPNO-CCSD(T), (RO)-DLPNO pert. Triples
   Tobias Risthaus        : Range-separated hybrids, TD-DFT gradient, RPA, STAB
   Michael Roemelt        : Original ROCIS implementation
   Masaaki Saitow         : Open-shell DLPNO-CCSD energy and density
   Barbara Sandhoefer     : DKH picture change effects
   Avijit Sen             : IP-ROCIS
   Kantharuban Sivalingam : CASSCF convergence, NEVPT2, FIC-MRCI
   Bernardo de Souza      : ESD, SOC TD-DFT
   Georgi Stoychev        : AutoAux, RI-MP2 NMR
   Willem Van den Heuvel  : Paramagnetic NMR
   Boris Wezisla          : Elementary symmetry handling
   Frank Wennmohs         : Technical directorship


 We gratefully acknowledge several colleagues who have allowed us to
 interface, adapt or use parts of their codes:
   Stefan Grimme, W. Hujo, H. Kruse,             : VdW corrections, initial TS optimization,
                  C. Bannwarth                     DFT functionals, gCP, sTDA/sTD-DF
   Ed Valeev, F. Pavosevic, A. Kumar             : LibInt (2-el integral package), F12 methods
   Garnet Chan, S. Sharma, J. Yang, R. Olivares  : DMRG
   Ulf Ekstrom                                   : XCFun DFT Library
   Mihaly Kallay                                 : mrcc  (arbitrary order and MRCC methods)
   Andreas Klamt, Michael Diedenhofen            : otool_cosmo (COSMO solvation model)
   Jiri Pittner, Ondrej Demel                    : Mk-CCSD
   Frank Weinhold                                : gennbo (NPA and NBO analysis)
   Christopher J. Cramer and Donald G. Truhlar   : smd solvation model
   Lars Goerigk                                  : TD-DFT with DH, B97 family of functionals
   V. Asgeirsson, H. Jonsson                     : NEB implementation
   FAccTs GmbH                                   : IRC, NEB, NEB-TS, Multilevel, MM, QM/MM, CI optimization
   S Lehtola, MJT Oliveira, MAL Marques          : LibXC Library


 Your calculation uses the libint2 library for the computation of 2-el integrals
 For citations please refer to: http://libint.valeyev.net

 Your ORCA version has been built with support for libXC version: 4.2.3
 For citations please refer to: https://tddft.org/programs/libxc/

 This ORCA versions uses:
   CBLAS   interface :  Fast vector & matrix operations
   LAPACKE interface :  Fast linear algebra routines
   SCALAPACK package :  Parallel linear algebra routines




***************************************
The coordinates will be read from file: Mo-TAEA-NH3_0_2_bp86_lanl2dz_6-31gpol.opt.xyz
***************************************


----- Orbital basis set information -----
Your calculation utilizes the basis: def2-SVP
   F. Weigend and R. Ahlrichs, Phys. Chem. Chem. Phys. 7, 3297 (2005).

----- AuxJ basis set information -----
Your calculation utilizes the AutoAux generation procedure.
  G. L. Stoychev, A. A. Auer, F. Neese, J. Chem. Theory Comput. 13, 554 (2017)

----- AuxC basis set information -----
Your calculation utilizes the AutoAux generation procedure.
  G. L. Stoychev, A. A. Auer, F. Neese, J. Chem. Theory Comput. 13, 554 (2017)

----- AuxJK basis set information -----
Your calculation utilizes the AutoAux generation procedure.
  G. L. Stoychev, A. A. Auer, F. Neese, J. Chem. Theory Comput. 13, 554 (2017)

cite the ECPs for Mo [Def2-ECP] as follows:
Ce-Yb(ecp-28): M. Dolg, H. Stoll, H.Preuss, J. Chem. Phys., 1989, 90, 1730-1734.
Y-Cd(ecp-28), Hf-Hg(ecp-46): D. Andrae,U. Haeussermann, M. Dolg, H. Stoll, H. Preuss, Theor. Chim. Acta, 1990, 77, 123-141.
In-Sb(ecp-28), Tl-Bi(ecp-46): B. Metz, H. Stoll, M. Dolg, J. Chem. Phys., 2000, 113, 2563-2569.
Te-Xe(ecp-28), Po-Rn(ecp-46): K. A. Peterson, D. Figgen, E. Goll, H. Stoll, M. Dolg, J. Chem. Phys., 2003, 119, 11113-11123.
Rb(ecp-28), Cs(ecp-46): T. Leininger, A. Nicklass, W. Kuechle, H. Stoll, M. Dolg, A. Bergner, Chem. Phys. Lett., 1996, 255, 274-280.
Sr(ecp-28), Ba(ecp-46): M. Kaupp, P. V. Schleyer, H. Stoll and H. Preuss, J. Chem. Phys., 1991, 94, 1360-1366.
La(ecp-46): M. Dolg, H. Stoll, A. Savin, H. Preuss, Theor. Chim. Acta, 1989, 75, 173-194.
Lu(ecp-28): X. Cao, M. Dolg, J. Chem. Phys., 2001, 115, 7348-7355.

ECP parameters for Mo [Def2-ECP] have been obtained from:
TURBOMOLE (7.0.2)

================================================================================
                                        WARNINGS
                       Please study these warnings very carefully!
================================================================================


INFO   : the flag for use of LIBINT has been found!

================================================================================
                                       INPUT FILE
================================================================================
NAME = Mo-TAEA-NH3_0_2_UHF_def2-tzvpp_def2-svp.sp.inp
|  1> !uhf def2-svp tightscf 
|  2> !normalprint autoaux rijcosx uno
|  3> !pal8
|  4> !moread
|  5> 
|  6> %moinp "Mo-TAEA-NH3_0_2_bp86_lanl2dz_6-31gpol.opt.gbw"
|  7> 
|  8> %scf
|  9>   maxiter 500
| 10> end
| 11> 
| 12> %basis
| 13>   newgto Mo "def2-tzvpp" end
| 14> end
| 15> 
| 16> *xyzfile 0 2 Mo-TAEA-NH3_0_2_bp86_lanl2dz_6-31gpol.opt.xyz
| 17> 
| 18>                          ****END OF INPUT****
================================================================================

                       ****************************
                       * Single Point Calculation *
                       ****************************

---------------------------------
CARTESIAN COORDINATES (ANGSTROEM)
---------------------------------
  Mo     7.161049   15.739738   13.552686
  N      5.471131   15.197321   14.433170
  N      8.746513   14.519192   13.704041
  N      7.513929   17.690751   13.295368
  N      7.695166   16.198866   15.587176
  N      6.603922   15.231830   11.462641
  H      7.300179   14.609821   11.024603
  H      6.582185   16.069042   10.861573
  H      5.689405   14.766295   11.323835
  C      5.318330   15.472719   15.889445
  H      4.718837   14.691744   16.407905
  H      4.803931   16.445807   16.083145
  C      6.730529   15.489986   16.521529
  H      6.730688   15.959049   17.529273
  H      7.091922   14.450770   16.617908
  C      9.341792   14.392155   15.055764
  H      8.898896   13.552112   15.643655
  H     10.439166   14.205749   15.018849
  C      9.115827   15.727841   15.802263
  H      9.351319   15.638174   16.885554
  H      9.771732   16.497146   15.359352
  C      8.072414   18.413421   14.460314
  H      7.732135   19.471513   14.510628
  H      9.187754   18.441834   14.435862
  C      7.596196   17.702186   15.754170
  H      8.166575   18.034873   16.649563
  H      6.527762   17.934893   15.909817
  H      7.282313   18.335594   12.527952
  H      4.557056   14.915977   14.040522
  H      8.871089   13.632708   13.191849

----------------------------
CARTESIAN COORDINATES (A.U.)
----------------------------
  NO LB      ZA    FRAG     MASS         X           Y           Z
   0 Mo   14.0000*   0    95.940   13.532422   29.743793   25.610866
   1 N     7.0000    0    14.007   10.338940   28.718775   27.274739
   2 N     7.0000    0    14.007   16.528514   27.437296   25.896884
   3 N     7.0000    0    14.007   14.199268   33.430674   25.124604
   4 N     7.0000    0    14.007   14.541757   30.611421   29.455494
   5 N     7.0000    0    14.007   12.479604   28.783986   21.661253
   6 H     1.0000    0     1.008   13.795339   27.608561   20.833480
   7 H     1.0000    0     1.008   12.438526   30.366089   20.525399
   8 H     1.0000    0     1.008   10.751417   27.904253   21.398946
   9 C     6.0000    0    12.011   10.050188   29.239201   30.026700
  10 H     1.0000    0     1.008    8.917310   27.763372   31.006447
  11 H     1.0000    0     1.008    9.078115   31.078071   30.392739
  12 C     6.0000    0    12.011   12.718857   29.271831   31.221165
  13 H     1.0000    0     1.008   12.719157   30.158232   33.125525
  14 H     1.0000    0     1.008   13.401791   27.307997   31.403296
  15 C     6.0000    0    12.011   17.653429   27.197232   28.451270
  16 H     1.0000    0     1.008   16.816477   25.609780   29.562224
  17 H     1.0000    0     1.008   19.727164   26.844974   28.381512
  18 C     6.0000    0    12.011   17.226417   29.721313   29.861948
  19 H     1.0000    0     1.008   17.671432   29.551867   31.909073
  20 H     1.0000    0     1.008   18.465898   31.175088   29.024968
  21 C     6.0000    0    12.011   15.254652   34.796322   27.326033
  22 H     1.0000    0     1.008   14.611617   36.795826   27.421113
  23 H     1.0000    0     1.008   17.362339   34.850015   27.279825
  24 C     6.0000    0    12.011   14.354730   33.452283   29.771067
  25 H     1.0000    0     1.008   15.432589   34.080971   31.463114
  26 H     1.0000    0     1.008   12.335682   33.892037   30.065196
  27 H     1.0000    0     1.008   13.761577   34.649251   23.674398
  28 H     1.0000    0     1.008    8.611588   28.187112   26.532742
  29 H     1.0000    0     1.008   16.763929   25.762084   24.928982
* core charge reduced due to ECP

--------------------------------
INTERNAL COORDINATES (ANGSTROEM)
--------------------------------
 Mo     0   0   0     0.000000000000     0.00000000     0.00000000
 N      1   0   0     1.981234642873     0.00000000     0.00000000
 N      1   2   0     2.006572682212   118.28790299     0.00000000
 N      1   2   3     1.999297310526   118.35363094   207.25629586
 N      1   2   3     2.152957791624    81.37503503   283.86639245
 N      1   2   3     2.221857283880    98.13949128   103.06988836
 H      6   1   2     1.031283661258   111.60087104   233.50743684
 H      6   1   2     1.030863984925   111.59942952   116.54725674
 H      6   1   2     1.035534290335   116.76319240   355.02085702
 C      2   1   3     1.489942550913   118.11486432    82.33578703
 H     10   2   1     1.112705899112   112.39177158   213.59800283
 H     10   2   1     1.117598495088   112.18148717    93.74387220
 C      5   1   2     1.518568853087   108.92250654    16.99158323
 H     13   5   1     1.111561056865   111.14576342   199.86639625
 H     13   5   1     1.104474753788   106.56280956    81.79111518
 C      3   1   2     1.482447642628   115.98802362   291.79060209
 H     16   3   1     1.116891407069   112.65419201    91.04333353
 H     16   3   1     1.113704756387   112.32029921   211.17653548
 C      5   1   2     1.512086208770   107.52204052   137.76368300
 H     19   5   1     1.112212683555   111.25936073   197.71409111
 H     19   5   1     1.103725768588   106.50684944    79.36845554
 C      4   1   2     1.480289376421   116.21295274    82.42716226
 H     22   4   1     1.112600639760   112.61131513   212.51074522
 H     22   4   1     1.115969832290   111.85473104    92.72859252
 C      5   1   2     1.515800861446   107.42203338   257.02698309
 H     25   5   1     1.112537513584   110.59526786   198.66482789
 H     25   5   1     1.104504813610   106.71669465    80.67871613
 H      4   1   2     1.028783563807   131.90775782   270.53642578
 H      2   1   3     1.033857110109   131.28910945   247.89365626
 H      3   1   2     1.031364636486   125.50726437    74.89190536

---------------------------
INTERNAL COORDINATES (A.U.)
---------------------------
 Mo     0   0   0     0.000000000000     0.00000000     0.00000000
 N      1   0   0     3.743990882067     0.00000000     0.00000000
 N      1   2   0     3.791872837188   118.28790299     0.00000000
 N      1   2   3     3.778124377179   118.35363094   207.25629586
 N      1   2   3     4.068500604062    81.37503503   283.86639245
 N      1   2   3     4.198701775191    98.13949128   103.06988836
 H      6   1   2     1.948843686166   111.60087104   233.50743684
 H      6   1   2     1.948050612830   111.59942952   116.54725674
 H      6   1   2     1.956876211018   116.76319240   355.02085702
 C      2   1   3     2.815583376501   118.11486432    82.33578703
 H     10   2   1     2.102709416921   112.39177158   213.59800283
 H     10   2   1     2.111955083398   112.18148717    93.74387220
 C      5   1   2     2.869679247837   108.92250654    16.99158323
 H     13   5   1     2.100545978607   111.14576342   199.86639625
 H     13   5   1     2.087154806489   106.56280956    81.79111518
 C      3   1   2     2.801420052444   115.98802362   291.79060209
 H     16   3   1     2.110618880691   112.65419201    91.04333353
 H     16   3   1     2.104596983617   112.32029921   211.17653548
 C      5   1   2     2.857428825454   107.52204052   137.76368300
 H     19   5   1     2.101777374592   111.25936073   197.71409111
 H     19   5   1     2.085739429584   106.50684944    79.36845554
 C      4   1   2     2.797341520389   116.21295274    82.42716226
 H     22   4   1     2.102510505572   112.61131513   212.51074522
 H     22   4   1     2.108877356746   111.85473104    92.72859252
 C      5   1   2     2.864448501696   107.42203338   257.02698309
 H     25   5   1     2.102391214387   110.59526786   198.66482789
 H     25   5   1     2.087211611321   106.71669465    80.67871613
 H      4   1   2     1.944119186674   131.90775782   270.53642578
 H      2   1   3     1.953706799712   131.28910945   247.89365626
 H      3   1   2     1.948996707170   125.50726437    74.89190536

---------------------
BASIS SET INFORMATION
---------------------
There are 4 groups of distinct atoms

 Group   1 Type Mo  : 7s7p5d2f1g contracted to 6s4p3d2f1g pattern {211111/4111/311/11/1}
 Group   2 Type N   : 7s4p1d contracted to 3s2p1d pattern {511/31/1}
 Group   3 Type H   : 4s1p contracted to 2s1p pattern {31/1}
 Group   4 Type C   : 7s4p1d contracted to 3s2p1d pattern {511/31/1}

Atom   0Mo   basis set group =>   1
Atom   1N    basis set group =>   2
Atom   2N    basis set group =>   2
Atom   3N    basis set group =>   2
Atom   4N    basis set group =>   2
Atom   5N    basis set group =>   2
Atom   6H    basis set group =>   3
Atom   7H    basis set group =>   3
Atom   8H    basis set group =>   3
Atom   9C    basis set group =>   4
Atom  10H    basis set group =>   3
Atom  11H    basis set group =>   3
Atom  12C    basis set group =>   4
Atom  13H    basis set group =>   3
Atom  14H    basis set group =>   3
Atom  15C    basis set group =>   4
Atom  16H    basis set group =>   3
Atom  17H    basis set group =>   3
Atom  18C    basis set group =>   4
Atom  19H    basis set group =>   3
Atom  20H    basis set group =>   3
Atom  21C    basis set group =>   4
Atom  22H    basis set group =>   3
Atom  23H    basis set group =>   3
Atom  24C    basis set group =>   4
Atom  25H    basis set group =>   3
Atom  26H    basis set group =>   3
Atom  27H    basis set group =>   3
Atom  28H    basis set group =>   3
Atom  29H    basis set group =>   3
---------------------------------
AUXILIARY/J BASIS SET INFORMATION
---------------------------------
There are 4 groups of distinct atoms

 Group   1 Type Mo  : 12s11p11d9f9g3h3i contracted to 12s11p11d9f9g3h3i pattern {111111111111/11111111111/11111111111/111111111/111111111/111/111}
 Group   2 Type N   : 14s11p10d2f contracted to 14s11p10d2f pattern {11111111111111/11111111111/1111111111/11}
 Group   3 Type H   : 9s2p1d contracted to 9s2p1d pattern {111111111/11/1}
 Group   4 Type C   : 14s11p10d2f contracted to 14s11p10d2f pattern {11111111111111/11111111111/1111111111/11}

Atom   0Mo   basis set group =>   1
Atom   1N    basis set group =>   2
Atom   2N    basis set group =>   2
Atom   3N    basis set group =>   2
Atom   4N    basis set group =>   2
Atom   5N    basis set group =>   2
Atom   6H    basis set group =>   3
Atom   7H    basis set group =>   3
Atom   8H    basis set group =>   3
Atom   9C    basis set group =>   4
Atom  10H    basis set group =>   3
Atom  11H    basis set group =>   3
Atom  12C    basis set group =>   4
Atom  13H    basis set group =>   3
Atom  14H    basis set group =>   3
Atom  15C    basis set group =>   4
Atom  16H    basis set group =>   3
Atom  17H    basis set group =>   3
Atom  18C    basis set group =>   4
Atom  19H    basis set group =>   3
Atom  20H    basis set group =>   3
Atom  21C    basis set group =>   4
Atom  22H    basis set group =>   3
Atom  23H    basis set group =>   3
Atom  24C    basis set group =>   4
Atom  25H    basis set group =>   3
Atom  26H    basis set group =>   3
Atom  27H    basis set group =>   3
Atom  28H    basis set group =>   3
Atom  29H    basis set group =>   3
---------------------------------
AUXILIARY/C BASIS SET INFORMATION
---------------------------------
There are 4 groups of distinct atoms

 Group   1 Type Mo  : 12s11p11d9f9g3h3i contracted to 12s11p11d9f9g3h3i pattern {111111111111/11111111111/11111111111/111111111/111111111/111/111}
 Group   2 Type N   : 14s11p10d2f contracted to 14s11p10d2f pattern {11111111111111/11111111111/1111111111/11}
 Group   3 Type H   : 9s2p1d contracted to 9s2p1d pattern {111111111/11/1}
 Group   4 Type C   : 14s11p10d2f contracted to 14s11p10d2f pattern {11111111111111/11111111111/1111111111/11}

Atom   0Mo   basis set group =>   1
Atom   1N    basis set group =>   2
Atom   2N    basis set group =>   2
Atom   3N    basis set group =>   2
Atom   4N    basis set group =>   2
Atom   5N    basis set group =>   2
Atom   6H    basis set group =>   3
Atom   7H    basis set group =>   3
Atom   8H    basis set group =>   3
Atom   9C    basis set group =>   4
Atom  10H    basis set group =>   3
Atom  11H    basis set group =>   3
Atom  12C    basis set group =>   4
Atom  13H    basis set group =>   3
Atom  14H    basis set group =>   3
Atom  15C    basis set group =>   4
Atom  16H    basis set group =>   3
Atom  17H    basis set group =>   3
Atom  18C    basis set group =>   4
Atom  19H    basis set group =>   3
Atom  20H    basis set group =>   3
Atom  21C    basis set group =>   4
Atom  22H    basis set group =>   3
Atom  23H    basis set group =>   3
Atom  24C    basis set group =>   4
Atom  25H    basis set group =>   3
Atom  26H    basis set group =>   3
Atom  27H    basis set group =>   3
Atom  28H    basis set group =>   3
Atom  29H    basis set group =>   3
----------------------------------
AUXILIARY/JK BASIS SET INFORMATION
----------------------------------
There are 4 groups of distinct atoms

 Group   1 Type Mo  : 12s11p11d9f9g3h3i contracted to 12s11p11d9f9g3h3i pattern {111111111111/11111111111/11111111111/111111111/111111111/111/111}
 Group   2 Type N   : 14s11p10d2f contracted to 14s11p10d2f pattern {11111111111111/11111111111/1111111111/11}
 Group   3 Type H   : 9s2p1d contracted to 9s2p1d pattern {111111111/11/1}
 Group   4 Type C   : 14s11p10d2f contracted to 14s11p10d2f pattern {11111111111111/11111111111/1111111111/11}

Atom   0Mo   basis set group =>   1
Atom   1N    basis set group =>   2
Atom   2N    basis set group =>   2
Atom   3N    basis set group =>   2
Atom   4N    basis set group =>   2
Atom   5N    basis set group =>   2
Atom   6H    basis set group =>   3
Atom   7H    basis set group =>   3
Atom   8H    basis set group =>   3
Atom   9C    basis set group =>   4
Atom  10H    basis set group =>   3
Atom  11H    basis set group =>   3
Atom  12C    basis set group =>   4
Atom  13H    basis set group =>   3
Atom  14H    basis set group =>   3
Atom  15C    basis set group =>   4
Atom  16H    basis set group =>   3
Atom  17H    basis set group =>   3
Atom  18C    basis set group =>   4
Atom  19H    basis set group =>   3
Atom  20H    basis set group =>   3
Atom  21C    basis set group =>   4
Atom  22H    basis set group =>   3
Atom  23H    basis set group =>   3
Atom  24C    basis set group =>   4
Atom  25H    basis set group =>   3
Atom  26H    basis set group =>   3
Atom  27H    basis set group =>   3
Atom  28H    basis set group =>   3
Atom  29H    basis set group =>   3
-------------------------
ECP PARAMETER INFORMATION
-------------------------

 Group 1, Type Mo ECP Def2-ECP (replacing 28 core electrons, lmax=3)

Atom   0Mo   ECP group =>   1



           ************************************************************
           *        Program running with 8 parallel MPI-processes     *
           *              working on a common directory               *
           ************************************************************
------------------------------------------------------------------------------
                           ORCA GTO INTEGRAL CALCULATION
                           -- RI-GTO INTEGRALS CHOSEN --
------------------------------------------------------------------------------

                         BASIS SET STATISTICS AND STARTUP INFO

Gaussian basis set:
 # of primitive gaussian shells          ...  244
 # of primitive gaussian functions       ...  466
 # of contracted shells                  ...  136
 # of contracted basis functions         ...  300
 Highest angular momentum                ...    4
 Maximum contraction depth               ...    5
Auxiliary gaussian basis set:
 # of primitive gaussian shells          ...  681
 # of primitive gaussian functions       ... 1897
 # of contracted shells                  ...  681
 # of contracted aux-basis functions     ... 1897
 Highest angular momentum                ...    6
 Maximum contraction depth               ...    1
Ratio of auxiliary to basis functions    ...  6.32
Integral package used                  ... LIBINT
 One Electron integrals                  
   ECP integrals                         ... done
 Ordering auxiliary basis shells         ... done
 Integral threshhold             Thresh  ...  2.500e-11
 Primitive cut-off               TCut    ...  2.500e-12
 Pre-screening matrix                    ... done
 Shell pair data                         ... 
 Ordering of the shell pairs             ... done (   0.002 sec) 8523 of 9316 pairs
 Determination of significant pairs      ... done (   0.000 sec)
 Creation of shell pair data             ... done (   0.002 sec)
 Storage of shell pair data              ... done (   0.024 sec)
 Shell pair data done in (   0.028 sec)
 Computing two index integrals           ... done
 Cholesky decomposition of the V-matrix  ... done


Timings:
 Total evaluation time                   ...   2.015 sec (  0.034 min)
 One electron matrix time                ...   1.205 sec (  0.020 min) = 59.8%
 Schwartz matrix evaluation time         ...   0.152 sec (  0.003 min) =  7.6%
 Two index repulsion integral time       ...   0.210 sec (  0.003 min) = 10.4%
 Cholesky decomposition of V             ...   0.385 sec (  0.006 min) = 19.1%
 Three index repulsion integral time     ...   0.000 sec (  0.000 min) =  0.0%



           ************************************************************
           *        Program running with 8 parallel MPI-processes     *
           *              working on a common directory               *
           ************************************************************
-------------------------------------------------------------------------------
                                 ORCA SCF
-------------------------------------------------------------------------------

------------
SCF SETTINGS
------------
Hamiltonian:
 Ab initio Hamiltonian  Method          .... Hartree-Fock(GTOs)
 RI-approximation to the Coulomb term is turned on
   Number of auxiliary basis functions  .... 1897
   RIJ-COSX (HFX calculated with COS-X)).... on


General Settings:
 Integral files         IntName         .... Mo-TAEA-NH3_0_2_UHF_def2-tzvpp_def2-svp.sp
 Hartree-Fock type      HFTyp           .... UHF
 Total Charge           Charge          ....    0
 Multiplicity           Mult            ....    2
 Number of Electrons    NEL             ....  103
 Basis Dimension        Dim             ....  300
 Nuclear Repulsion      ENuc            ....    929.6310470229 Eh

Convergence Acceleration:
 DIIS                   CNVDIIS         .... on
   Start iteration      DIISMaxIt       ....    12
   Startup error        DIISStart       ....  0.200000
   # of expansion vecs  DIISMaxEq       ....     5
   Bias factor          DIISBfac        ....   1.050
   Max. coefficient     DIISMaxC        ....  10.000
 Newton-Raphson         CNVNR           .... off
 SOSCF                  CNVSOSCF        .... off
 Level Shifting         CNVShift        .... on
   Level shift para.    LevelShift      ....    0.2500
   Turn off err/grad.   ShiftErr        ....    0.0010
 Zerner damping         CNVZerner       .... off
 Static damping         CNVDamp         .... on
   Fraction old density DampFac         ....    0.7000
   Max. Damping (<1)    DampMax         ....    0.9800
   Min. Damping (>=0)   DampMin         ....    0.0000
   Turn off err/grad.   DampErr         ....    0.1000
 Fernandez-Rico         CNVRico         .... off

SCF Procedure:
 Maximum # iterations   MaxIter         ....   500
 SCF integral mode      SCFMode         .... Direct
   Integral package                     .... LIBINT
 Reset frequency        DirectResetFreq ....    20
 Integral Threshold     Thresh          ....  2.500e-11 Eh
 Primitive CutOff       TCut            ....  2.500e-12 Eh

Convergence Tolerance:
 Convergence Check Mode ConvCheckMode   .... Total+1el-Energy
 Convergence forced     ConvForced      .... 0
 Energy Change          TolE            ....  1.000e-08 Eh
 1-El. energy change                    ....  1.000e-05 Eh
 DIIS Error             TolErr          ....  5.000e-07


Diagonalization of the overlap matrix:
Smallest eigenvalue                        ... 1.643e-03
Time for diagonalization                   ...    0.012 sec
Threshold for overlap eigenvalues          ... 1.000e-08
Number of eigenvalues below threshold      ... 0
Time for construction of square roots      ...    0.009 sec
Total time needed                          ...    0.021 sec

---------------------
INITIAL GUESS: MOREAD
---------------------
Guess MOs are being read from file: Mo-TAEA-NH3_0_2_bp86_lanl2dz_6-31gpol.opt.gbw
Input Geometry matches current geometry (good)
Atom 0: N(Shells)= 16 and 8 - projection required
Input basis set needs projection
NBasis(read)= 182
NBasis(calc)= 300
Basis set overlap was calculated
Using GuessMode=FMatrix for the initial guess
C*T matrix was formed
Effective Fockian was calculated
Effective Fockian was diagonalized
Initial density was built
C*T matrix was formed
Effective Fockian was calculated
Effective Fockian was diagonalized
Initial density was built
                      ------------------
                      INITIAL GUESS DONE (   0.1 sec)
                      ------------------
--------------------
COSX GRID GENERATION
--------------------

General Integration Accuracy     IntAcc      ...  3.340
Radial Grid Type                 RadialGrid  ... Gauss-Chebyshev
Angular Grid (max. acc.)         AngularGrid ... Lebedev-50
Angular grid pruning method      GridPruning ... 3 (G Style)
Weight generation scheme         WeightScheme... Becke
Basis function cutoff            BFCut       ...    1.0000e-11
Integration weight cutoff        WCut        ...    1.0000e-14
Grids for H and He will be reduced by one unit

# of grid points (after initial pruning)     ...  13324 (   0.0 sec)
# of grid points (after weights+screening)   ...  12003 (   0.0 sec)
nearest neighbour list constructed           ...    0.0 sec
Grid point re-assignment to atoms done       ...    0.0 sec
Grid point division into batches done        ...    0.0 sec
Reduced shell lists constructed in    0.0 sec

Total number of grid points                  ...    12003
Total number of batches                      ...      204
Average number of points per batch           ...       58
Average number of grid points per atom       ...      400
Average number of shells per batch           ...   111.74 (82.16%)
Average number of basis functions per batch  ...   250.93 (83.64%)
Average number of large shells per batch     ...    85.00 (76.07%)
Average number of large basis fcns per batch ...   186.93 (74.49%)
Maximum spatial batch extension              ...   3.78,  4.72,  4.11 au
Average spatial batch extension              ...   0.29,  0.27,  0.27 au

Overlap Fitting                  UseSFitting ... on
Constructing numerical overlap ... done (      0.0 sec)
Inverting numerical overlap    ... done (      0.0 sec)
Obtaining analytic overlap     ... done (      0.0 sec)
Final contraction and storage  ... done (      0.0 sec)


General Integration Accuracy     IntAcc      ...  3.670
Radial Grid Type                 RadialGrid  ... Gauss-Chebyshev
Angular Grid (max. acc.)         AngularGrid ... Lebedev-50
Angular grid pruning method      GridPruning ... 3 (G Style)
Weight generation scheme         WeightScheme... Becke
Basis function cutoff            BFCut       ...    1.0000e-11
Integration weight cutoff        WCut        ...    1.0000e-14
Grids for H and He will be reduced by one unit

# of grid points (after initial pruning)     ...  17018 (   0.0 sec)
# of grid points (after weights+screening)   ...  15306 (   0.0 sec)
nearest neighbour list constructed           ...    0.0 sec
Grid point re-assignment to atoms done       ...    0.0 sec
Grid point division into batches done        ...    0.0 sec
Reduced shell lists constructed in    0.0 sec

Total number of grid points                  ...    15306
Total number of batches                      ...      254
Average number of points per batch           ...       60
Average number of grid points per atom       ...      510
Average number of shells per batch           ...   110.88 (81.53%)
Average number of basis functions per batch  ...   247.91 (82.64%)
Average number of large shells per batch     ...    84.18 (75.92%)
Average number of large basis fcns per batch ...   184.97 (74.61%)
Maximum spatial batch extension              ...   5.05,  5.11,  6.17 au
Average spatial batch extension              ...   0.27,  0.27,  0.27 au

Overlap Fitting                  UseSFitting ... on
Constructing numerical overlap ... done (      0.0 sec)
Inverting numerical overlap    ... done (      0.0 sec)
Obtaining analytic overlap     ... done (      0.0 sec)
Final contraction and storage  ... done (      0.0 sec)


General Integration Accuracy     IntAcc      ...  4.010
Radial Grid Type                 RadialGrid  ... Gauss-Chebyshev
Angular Grid (max. acc.)         AngularGrid ... Lebedev-110
Angular grid pruning method      GridPruning ... 3 (G Style)
Weight generation scheme         WeightScheme... Becke
Basis function cutoff            BFCut       ...    1.0000e-11
Integration weight cutoff        WCut        ...    1.0000e-14
Grids for H and He will be reduced by one unit

# of grid points (after initial pruning)     ...  31144 (   0.0 sec)
# of grid points (after weights+screening)   ...  27912 (   0.0 sec)
nearest neighbour list constructed           ...    0.0 sec
Grid point re-assignment to atoms done       ...    0.0 sec
Grid point division into batches done        ...    0.0 sec
Reduced shell lists constructed in    0.1 sec

Total number of grid points                  ...    27912
Total number of batches                      ...      448
Average number of points per batch           ...       62
Average number of grid points per atom       ...      930
Average number of shells per batch           ...   108.98 (80.13%)
Average number of basis functions per batch  ...   242.91 (80.97%)
Average number of large shells per batch     ...    81.93 (75.18%)
Average number of large basis fcns per batch ...   180.00 (74.10%)
Maximum spatial batch extension              ...   5.16,  4.49,  4.56 au
Average spatial batch extension              ...   0.22,  0.23,  0.23 au

Overlap Fitting                  UseSFitting ... on
Constructing numerical overlap ... done (      0.0 sec)
Inverting numerical overlap    ... done (      0.0 sec)
Obtaining analytic overlap     ... done (      0.0 sec)
Final contraction and storage  ... done (      0.0 sec)

Time for X-Grid setup             =    0.555 sec
--------------
SCF ITERATIONS
--------------
               ***  Starting incremental Fock matrix formation  ***

                         ----------------------------
                         !        ITERATION     0   !
                         ----------------------------
   Total Energy        :    -576.597231494290 Eh
   Energy Change       :    -576.597231494290 Eh
   MAX-DP              :       0.072820471670
   RMS-DP              :       0.000680461822
   Actual Damping      :       0.7000
   Actual Level Shift  :       0.2500 Eh


                         ----------------------------
                         !        ITERATION     1   !
                         ----------------------------
   Total Energy        :    -576.732594126272 Eh
   Energy Change       :      -0.135362631982 Eh
   MAX-DP              :       0.052158644580
   RMS-DP              :       0.000544966027
   Actual Damping      :       0.7000
   Actual Level Shift  :       0.2500 Eh


                         ----------------------------
                         !        ITERATION     2   !
                         ----------------------------
   Total Energy        :    -576.835270093055 Eh
   Energy Change       :      -0.102675966784 Eh
   MAX-DP              :       0.038113591083
   RMS-DP              :       0.000417397123
   Actual Damping      :       0.7000
   Actual Level Shift  :       0.2500 Eh


                         ----------------------------
                         !        ITERATION     3   !
                         ----------------------------
   Total Energy        :    -576.911684362798 Eh
   Energy Change       :      -0.076414269743 Eh
   MAX-DP              :       0.027851325581
   RMS-DP              :       0.000317409632
   Actual Damping      :       0.7000
   Actual Level Shift  :       0.2500 Eh


                         ----------------------------
                         !        ITERATION     4   !
                         ----------------------------
   Total Energy        :    -576.968022672604 Eh
   Energy Change       :      -0.056338309806 Eh
   MAX-DP              :       0.020273641821
   RMS-DP              :       0.000241770947
   Actual Damping      :       0.7000
   Actual Level Shift  :       0.2500 Eh


                         ----------------------------
                         !        ITERATION     5   !
                         ----------------------------
   Total Energy        :    -577.009262589176 Eh
   Energy Change       :      -0.041239916572 Eh
   MAX-DP              :       0.014699261105
   RMS-DP              :       0.000184991050
   Actual Damping      :       0.7000
   Actual Level Shift  :       0.2500 Eh


                         ----------------------------
                         !        ITERATION     6   !
                         ----------------------------
   Total Energy        :    -577.039280964646 Eh
   Energy Change       :      -0.030018375470 Eh
   MAX-DP              :       0.010622980774
   RMS-DP              :       0.000142407921
   Actual Damping      :       0.7000
   Actual Level Shift  :       0.2500 Eh


                         ----------------------------
                         !        ITERATION     7   !
                         ----------------------------
   Total Energy        :    -577.061035249051 Eh
   Energy Change       :      -0.021754284405 Eh
   MAX-DP              :       0.007656645432
   RMS-DP              :       0.000110406983
   Actual Damping      :       0.7000
   Actual Level Shift  :       0.2500 Eh


                         ----------------------------
                         !        ITERATION     8   !
                         ----------------------------
   Total Energy        :    -577.076745772283 Eh
   Energy Change       :      -0.015710523232 Eh
   MAX-DP              :       0.005505099735
   RMS-DP              :       0.000086257881
   Actual Damping      :       0.7000
   Actual Level Shift  :       0.2500 Eh

                               ***Turning on DIIS***

                         ----------------------------
                         !        ITERATION     9   !
                         ----------------------------
   Total Energy        :    -577.088060501586 Eh
   Energy Change       :      -0.011314729303 Eh
   MAX-DP              :       0.003947867918
   RMS-DP              :       0.000067926956
   Actual Damping      :       0.7000
   Actual Level Shift  :       0.2500 Eh
   DIIS-Error          :       0.144633421618


                         ----------------------------
                         !        ITERATION    10   !
                         ----------------------------
   Total Energy        :    -577.095211403104 Eh
   Energy Change       :      -0.007150901518 Eh
   MAX-DP              :       0.002907237448
   RMS-DP              :       0.000060670876
   Actual Damping      :       0.7000
   Actual Level Shift  :       0.2500 Eh
   DIIS-Error          :       0.102079360062
   DIIS coefficients:
     -1.55027   2.55027


                         ----------------------------
                         !        ITERATION    11   !
                         ----------------------------
   Total Energy        :    -577.100973674439 Eh
   Energy Change       :      -0.005762271335 Eh
   MAX-DP              :       0.006805017046
   RMS-DP              :       0.000171967390
   Actual Damping      :       0.0000
   Actual Level Shift  :       0.2500 Eh
   DIIS-Error          :       0.071687349970
   DIIS coefficients:
     -0.66443  -0.56830   2.23274


                         ----------------------------
                         !        ITERATION    12   !
                         ----------------------------
   Total Energy        :    -577.116413135680 Eh
   Energy Change       :      -0.015439461241 Eh
   MAX-DP              :       0.001486602605
   RMS-DP              :       0.000027860946
   Actual Damping      :       0.0000
   Actual Level Shift  :       0.2500 Eh
   DIIS-Error          :       0.001778168730
   DIIS coefficients:
      0.01666  -0.01355  -0.04689   1.04378


                         ----------------------------
                         !        ITERATION    13   !
                         ----------------------------
   Total Energy        :    -577.116279123311 Eh
   Energy Change       :       0.000134012369 Eh
   MAX-DP              :       0.001422750039
   RMS-DP              :       0.000022444784
   Actual Damping      :       0.0000
   Actual Level Shift  :       0.2500 Eh
   DIIS-Error          :       0.001046802004
   DIIS coefficients:
      0.00263   0.00077  -0.00342  -0.82223   1.82225


                         ----------------------------
                         !        ITERATION    14   !
                         ----------------------------
   Total Energy        :    -577.116335410308 Eh
   Energy Change       :      -0.000056286998 Eh
   MAX-DP              :       0.001024350054
   RMS-DP              :       0.000016239969
   Actual Damping      :       0.0000
   Actual Level Shift  :       0.0000 Eh
   DIIS-Error          :       0.000726895976
   DIIS coefficients:
      1.42176   0.00054   0.00118  -0.04767  -0.37580

               *** Restarting incremental Fock matrix formation ***
                                   *** Resetting DIIS ***

                         ----------------------------
                         !        ITERATION    15   !
                         ----------------------------
   Total Energy        :    -577.116777533951 Eh
   Energy Change       :      -0.000442123642 Eh
   MAX-DP              :       0.000416477381
   RMS-DP              :       0.000005223658
   Actual Damping      :       0.0000
   Actual Level Shift  :       0.0000 Eh
   DIIS-Error          :       0.000587514439


                         ----------------------------
                         !        ITERATION    16   !
                         ----------------------------
   Total Energy        :    -577.117071745198 Eh
   Energy Change       :      -0.000294211247 Eh
   MAX-DP              :       0.000605968157
   RMS-DP              :       0.000006471281
   Actual Damping      :       0.0000
   Actual Level Shift  :       0.0000 Eh
   DIIS-Error          :       0.000500359361
   DIIS coefficients:
     -0.66596   1.66596


                         ----------------------------
                         !        ITERATION    17   !
                         ----------------------------
   Total Energy        :    -577.116228741122 Eh
   Energy Change       :       0.000843004076 Eh
   MAX-DP              :       0.000914367218
   RMS-DP              :       0.000009546676
   Actual Damping      :       0.0000
   Actual Level Shift  :       0.0000 Eh
   DIIS-Error          :       0.000373859347
   DIIS coefficients:
     -0.79269   0.13978   1.65291


                         ----------------------------
                         !        ITERATION    18   !
                         ----------------------------
   Total Energy        :    -577.116212177434 Eh
   Energy Change       :       0.000016563688 Eh
   MAX-DP              :       0.000581464937
   RMS-DP              :       0.000006099019
   Actual Damping      :       0.0000
   Actual Level Shift  :       0.0000 Eh
   DIIS-Error          :       0.000182178897
   DIIS coefficients:
      0.10645  -0.57695   0.20808   1.26242


                         ----------------------------
                         !        ITERATION    19   !
                         ----------------------------
   Total Energy        :    -577.116742022323 Eh
   Energy Change       :      -0.000529844889 Eh
   MAX-DP              :       0.000307297356
   RMS-DP              :       0.000003648924
   Actual Damping      :       0.0000
   Actual Level Shift  :       0.0000 Eh
   DIIS-Error          :       0.000069938926
   DIIS coefficients:
      0.07252   0.04488  -0.31982  -0.09397   1.29640


                         ----------------------------
                         !        ITERATION    20   !
                         ----------------------------
   Total Energy        :    -577.116696246080 Eh
   Energy Change       :       0.000045776243 Eh
   MAX-DP              :       0.000147154736
   RMS-DP              :       0.000002102024
   Actual Damping      :       0.0000
   Actual Level Shift  :       0.0000 Eh
   DIIS-Error          :       0.000022246704
   DIIS coefficients:
      1.19664   0.05465  -0.00252  -0.23015  -0.01861


                         ----------------------------
                         !        ITERATION    21   !
                         ----------------------------
   Total Energy        :    -577.116791310315 Eh
   Energy Change       :      -0.000095064234 Eh
   MAX-DP              :       0.000088856375
   RMS-DP              :       0.000001372544
   Actual Damping      :       0.0000
   Actual Level Shift  :       0.0000 Eh
   DIIS-Error          :       0.000008709414
   DIIS coefficients:
      0.19464   0.96347   0.02617  -0.03430  -0.14998


                         ----------------------------
                         !        ITERATION    22   !
                         ----------------------------
   Total Energy        :    -577.116808040787 Eh
   Energy Change       :      -0.000016730472 Eh
   MAX-DP              :       0.000066069317
   RMS-DP              :       0.000001040975
   Actual Damping      :       0.0000
   Actual Level Shift  :       0.0000 Eh
   DIIS-Error          :       0.000009103227
   DIIS coefficients:
     -0.05343   0.17526   0.89573   0.00290  -0.02046


                         ----------------------------
                         !        ITERATION    23   !
                         ----------------------------
   Total Energy        :    -577.116805227349 Eh
   Energy Change       :       0.000002813438 Eh
   MAX-DP              :       0.000065180040
   RMS-DP              :       0.000001036544
   Actual Damping      :       0.0000
   Actual Level Shift  :       0.0000 Eh
   DIIS-Error          :       0.000009190345
   DIIS coefficients:
      0.01481  -0.00663  -0.07081   1.07361  -0.01098


                         ----------------------------
                         !        ITERATION    24   !
                         ----------------------------
   Total Energy        :    -577.116806468410 Eh
   Energy Change       :      -0.000001241061 Eh
   MAX-DP              :       0.000062616323
   RMS-DP              :       0.000001010573
   Actual Damping      :       0.0000
   Actual Level Shift  :       0.0000 Eh
   DIIS-Error          :       0.000009129778
   DIIS coefficients:
      0.01488   0.01355  -0.11999  -0.02234   1.11390


                         ----------------------------
                         !        ITERATION    25   !
                         ----------------------------
   Total Energy        :    -577.116803982814 Eh
   Energy Change       :       0.000002485596 Eh
   MAX-DP              :       0.000046566155
   RMS-DP              :       0.000000747083
   Actual Damping      :       0.0000
   Actual Level Shift  :       0.0000 Eh
   DIIS-Error          :       0.000008941756
   DIIS coefficients:
      1.04796   0.02327   0.06833  -0.09890  -0.04065


                         ----------------------------
                         !        ITERATION    26   !
                         ----------------------------
   Total Energy        :    -577.116804012471 Eh
   Energy Change       :      -0.000000029657 Eh
   MAX-DP              :       0.000045202667
   RMS-DP              :       0.000000725516
   Actual Damping      :       0.0000
   Actual Level Shift  :       0.0000 Eh
   DIIS-Error          :       0.000008703641
   DIIS coefficients:
     -0.15508   1.19158   0.08374   0.05058  -0.17082


                         ----------------------------
                         !        ITERATION    27   !
                         ----------------------------
   Total Energy        :    -577.116806362319 Eh
   Energy Change       :      -0.000002349847 Eh
   MAX-DP              :       0.000068965519
   RMS-DP              :       0.000001101304
   Actual Damping      :       0.0000
   Actual Level Shift  :       0.0000 Eh
   DIIS-Error          :       0.000008414984
   DIIS coefficients:
     -0.39372  -0.29239   1.58613   0.13928  -0.03930


                         ----------------------------
                         !        ITERATION    28   !
                         ----------------------------
   Total Energy        :    -577.116804866430 Eh
   Energy Change       :       0.000001495889 Eh
   MAX-DP              :       0.000133807464
   RMS-DP              :       0.000002134211
   Actual Damping      :       0.0000
   Actual Level Shift  :       0.0000 Eh
   DIIS-Error          :       0.000008262584
   DIIS coefficients:
     -0.26026  -0.54535  -0.33918   2.01294   0.13185


                         ----------------------------
                         !        ITERATION    29   !
                         ----------------------------
   Total Energy        :    -577.116811908768 Eh
   Energy Change       :      -0.000007042339 Eh
   MAX-DP              :       0.000214807606
   RMS-DP              :       0.000003414911
   Actual Damping      :       0.0000
   Actual Level Shift  :       0.0000 Eh
   DIIS-Error          :       0.000008199114
   DIIS coefficients:
      0.06461  -0.23140  -0.53368  -0.33909   2.03956


                         ----------------------------
                         !        ITERATION    30   !
                         ----------------------------
   Total Energy        :    -577.116806091874 Eh
   Energy Change       :       0.000005816894 Eh
   MAX-DP              :       0.000187801346
   RMS-DP              :       0.000002979721
   Actual Damping      :       0.0000
   Actual Level Shift  :       0.0000 Eh
   DIIS-Error          :       0.000007386877
   DIIS coefficients:
      1.58684   0.10069  -0.03289  -0.51660  -0.13803


                         ----------------------------
                         !        ITERATION    31   !
                         ----------------------------
   Total Energy        :    -577.116806772539 Eh
   Energy Change       :      -0.000000680664 Eh
   MAX-DP              :       0.000145721517
   RMS-DP              :       0.000002298222
   Actual Damping      :       0.0000
   Actual Level Shift  :       0.0000 Eh
   DIIS-Error          :       0.000006508193
   DIIS coefficients:
     -0.08569   1.54167   0.23080   0.06995  -0.75674


                         ----------------------------
                         !        ITERATION    32   !
                         ----------------------------
   Total Energy        :    -577.116803314926 Eh
   Energy Change       :       0.000003457613 Eh
   MAX-DP              :       0.000076353127
   RMS-DP              :       0.000001198423
   Actual Damping      :       0.0000
   Actual Level Shift  :       0.0000 Eh
   DIIS-Error          :       0.000005130853
   DIIS coefficients:
     -1.03136  -0.04148   1.65379   0.30488   0.11417


                         ----------------------------
                         !        ITERATION    33   !
                         ----------------------------
   Total Energy        :    -577.116799696013 Eh
   Energy Change       :       0.000003618913 Eh
   MAX-DP              :       0.000008196199
   RMS-DP              :       0.000000108215
   Actual Damping      :       0.0000
   Actual Level Shift  :       0.0000 Eh
   DIIS-Error          :       0.000002950196
   DIIS coefficients:
      0.10763  -0.67576  -0.06114   1.45302   0.17625


                         ----------------------------
                         !        ITERATION    34   !
                         ----------------------------
   Total Energy        :    -577.116804481671 Eh
   Energy Change       :      -0.000004785657 Eh
   MAX-DP              :       0.000023986207
   RMS-DP              :       0.000000389503
   Actual Damping      :       0.0000
   Actual Level Shift  :       0.0000 Eh
   DIIS-Error          :       0.000001298582
   DIIS coefficients:
      0.04620   0.10968  -0.28183  -0.22376   1.34971

               *** Restarting incremental Fock matrix formation ***
                                   *** Resetting DIIS ***

                         ----------------------------
                         !        ITERATION    35   !
                         ----------------------------
   Total Energy        :    -577.116805743750 Eh
   Energy Change       :      -0.000001262079 Eh
   MAX-DP              :       0.000001834924
   RMS-DP              :       0.000000031190
   Actual Damping      :       0.0000
   Actual Level Shift  :       0.0000 Eh
   DIIS-Error          :       0.000001435762


                         ----------------------------
                         !        ITERATION    36   !
                         ----------------------------
   Total Energy        :    -577.116805809924 Eh
   Energy Change       :      -0.000000066174 Eh
   MAX-DP              :       0.000001895822
   RMS-DP              :       0.000000028815
   Actual Damping      :       0.0000
   Actual Level Shift  :       0.0000 Eh
   DIIS-Error          :       0.000001434458
   DIIS coefficients:
     -0.11601   1.11601


                         ----------------------------
                         !        ITERATION    37   !
                         ----------------------------
   Total Energy        :    -577.116806090183 Eh
   Energy Change       :      -0.000000280260 Eh
   MAX-DP              :       0.000001102537
   RMS-DP              :       0.000000017140
   Actual Damping      :       0.0000
   Actual Level Shift  :       0.0000 Eh
   DIIS-Error          :       0.000001429962
   DIIS coefficients:
     -0.10824   0.46741   0.64083


                         ----------------------------
                         !        ITERATION    38   !
                         ----------------------------
   Total Energy        :    -577.116805654953 Eh
   Energy Change       :       0.000000435230 Eh
   MAX-DP              :       0.000001518066
   RMS-DP              :       0.000000023833
   Actual Damping      :       0.0000
   Actual Level Shift  :       0.0000 Eh
   DIIS-Error          :       0.000001425737
   DIIS coefficients:
     -0.06339  -0.05926   0.38299   0.73966


                         ----------------------------
                         !        ITERATION    39   !
                         ----------------------------
   Total Energy        :    -577.116805365444 Eh
   Energy Change       :       0.000000289509 Eh
   MAX-DP              :       0.000002458342
   RMS-DP              :       0.000000038989
   Actual Damping      :       0.0000
   Actual Level Shift  :       0.0000 Eh
   DIIS-Error          :       0.000001417182
   DIIS coefficients:
     -0.00328  -0.52162   0.17388   0.47115   0.87987


                         ----------------------------
                         !        ITERATION    40   !
                         ----------------------------
   Total Energy        :    -577.116805251786 Eh
   Energy Change       :       0.000000113658 Eh
   MAX-DP              :       0.000003332648
   RMS-DP              :       0.000000053116
   Actual Damping      :       0.0000
   Actual Level Shift  :       0.0000 Eh
   DIIS-Error          :       0.000001401026
   DIIS coefficients:
      0.92352  -0.65028   0.04092   0.21046   0.47537


                         ----------------------------
                         !        ITERATION    41   !
                         ----------------------------
   Total Energy        :    -577.116805664577 Eh
   Energy Change       :      -0.000000412792 Eh
   MAX-DP              :       0.000002705454
   RMS-DP              :       0.000000043475
   Actual Damping      :       0.0000
   Actual Level Shift  :       0.0000 Eh
   DIIS-Error          :       0.000001375682
   DIIS coefficients:
      0.40221   0.95242  -0.38333  -0.06058   0.08928


                         ----------------------------
                         !        ITERATION    42   !
                         ----------------------------
   Total Energy        :    -577.116805436249 Eh
   Energy Change       :       0.000000228328 Eh
   MAX-DP              :       0.000004348599
   RMS-DP              :       0.000000069911
   Actual Damping      :       0.0000
   Actual Level Shift  :       0.0000 Eh
   DIIS-Error          :       0.000001345120
   DIIS coefficients:
      0.25697   0.51970   0.87582  -0.75037   0.09788


                         ----------------------------
                         !        ITERATION    43   !
                         ----------------------------
   Total Energy        :    -577.116805321242 Eh
   Energy Change       :       0.000000115008 Eh
   MAX-DP              :       0.000004186750
   RMS-DP              :       0.000000068161
   Actual Damping      :       0.0000
   Actual Level Shift  :       0.0000 Eh
   DIIS-Error          :       0.000001298773
   DIIS coefficients:
      0.04809   0.16126   0.41342   0.94206  -0.56484


                         ----------------------------
                         !        ITERATION    44   !
                         ----------------------------
   Total Energy        :    -577.116805309221 Eh
   Energy Change       :       0.000000012020 Eh
   MAX-DP              :       0.000004896642
   RMS-DP              :       0.000000080754
   Actual Damping      :       0.0000
   Actual Level Shift  :       0.0000 Eh
   DIIS-Error          :       0.000001243198
   DIIS coefficients:
     -0.51406  -0.01589   0.12042   0.42828   0.98125


                         ----------------------------
                         !        ITERATION    45   !
                         ----------------------------
   Total Energy        :    -577.116805243542 Eh
   Energy Change       :       0.000000065679 Eh
   MAX-DP              :       0.000006944772
   RMS-DP              :       0.000000116104
   Actual Damping      :       0.0000
   Actual Level Shift  :       0.0000 Eh
   DIIS-Error          :       0.000001170701
   DIIS coefficients:
      1.12739  -0.64726   0.01764   0.09337   0.40885


                         ----------------------------
                         !        ITERATION    46   !
                         ----------------------------
   Total Energy        :    -577.116805322310 Eh
   Energy Change       :      -0.000000078768 Eh
   MAX-DP              :       0.000008626910
   RMS-DP              :       0.000000142021
   Actual Damping      :       0.0000
   Actual Level Shift  :       0.0000 Eh
   DIIS-Error          :       0.000001060083
   DIIS coefficients:
      0.31979   1.30644  -0.39090  -0.17115  -0.06418

                            ***DIIS convergence achieved***

               *****************************************************
               *                     SUCCESS                       *
               *           SCF CONVERGED AFTER  47 CYCLES          *
               *****************************************************

Old exchange energy                            =    -77.741262839 Eh
New exchange energy                            =    -77.739792431 Eh
Exchange energy change after final integration =      0.001470408 Eh
Total energy after final integration           =   -577.115334926 Eh
Final COS-X integration done in                =     5.356 sec

----------------
TOTAL SCF ENERGY
----------------

Total Energy       :         -577.11533493 Eh          -15704.10664 eV

Components:
Nuclear Repulsion  :          929.63104702 Eh           25296.54684 eV
Electronic Energy  :        -1506.74638195 Eh          -41000.65349 eV
One Electron Energy:        -2659.96205170 Eh          -72381.24722 eV
Two Electron Energy:         1153.21566975 Eh           31380.59373 eV

Virial components:
Potential Energy   :        -1106.68423586 Eh          -30114.40904 eV
Kinetic Energy     :          529.56890093 Eh           14410.30240 eV
Virial Ratio       :            2.08978328


---------------
SCF CONVERGENCE
---------------

  Last Energy change         ...   -1.1780e-08  Tolerance :   1.0000e-08
  Last MAX-Density change    ...    0.0000e+00  Tolerance :   1.0000e-07
  Last RMS-Density change    ...    0.0000e+00  Tolerance :   5.0000e-09
  Last DIIS Error            ...    9.1263e-07  Tolerance :   5.0000e-07

             **** THE GBW FILE WAS UPDATED (Mo-TAEA-NH3_0_2_UHF_def2-tzvpp_def2-svp.sp.gbw) ****
             **** DENSITY FILE WAS UPDATED (Mo-TAEA-NH3_0_2_UHF_def2-tzvpp_def2-svp.sp.scfp) ****
             **** ENERGY FILE WAS UPDATED (Mo-TAEA-NH3_0_2_UHF_def2-tzvpp_def2-svp.sp.en.tmp) ****
----------------------
UHF SPIN CONTAMINATION
----------------------

Expectation value of <S**2>     :     0.757618
Ideal value S*(S+1) for S=0.5   :     0.750000
Deviation                       :     0.007618

             **** THE GBW FILE WAS UPDATED (Mo-TAEA-NH3_0_2_UHF_def2-tzvpp_def2-svp.sp.gbw) ****
             **** DENSITY FILE WAS UPDATED (Mo-TAEA-NH3_0_2_UHF_def2-tzvpp_def2-svp.sp.scfp) ****
----------------
ORBITAL ENERGIES
----------------
                 SPIN UP ORBITALS
  NO   OCC          E(Eh)            E(eV) 
   0   1.0000     -15.602722      -424.5717 
   1   1.0000     -15.573942      -423.7885 
   2   1.0000     -15.477901      -421.1751 
   3   1.0000     -15.474976      -421.0955 
   4   1.0000     -15.474831      -421.0916 
   5   1.0000     -11.253138      -306.2134 
   6   1.0000     -11.251689      -306.1740 
   7   1.0000     -11.250818      -306.1503 
   8   1.0000     -11.235632      -305.7371 
   9   1.0000     -11.235343      -305.7292 
  10   1.0000     -11.231997      -305.6382 
  11   1.0000      -2.988264       -81.3148 
  12   1.0000      -1.860603       -50.6296 
  13   1.0000      -1.852929       -50.4208 
  14   1.0000      -1.812602       -49.3234 
  15   1.0000      -1.209340       -32.9078 
  16   1.0000      -1.172411       -31.9029 
  17   1.0000      -1.084522       -29.5113 
  18   1.0000      -1.081188       -29.4206 
  19   1.0000      -1.065391       -28.9908 
  20   1.0000      -0.944505       -25.7013 
  21   1.0000      -0.942753       -25.6536 
  22   1.0000      -0.873623       -23.7725 
  23   1.0000      -0.784646       -21.3513 
  24   1.0000      -0.782810       -21.3013 
  25   1.0000      -0.745568       -20.2879 
  26   1.0000      -0.671844       -18.2818 
  27   1.0000      -0.669382       -18.2148 
  28   1.0000      -0.640309       -17.4237 
  29   1.0000      -0.637547       -17.3485 
  30   1.0000      -0.636102       -17.3092 
  31   1.0000      -0.611929       -16.6514 
  32   1.0000      -0.605529       -16.4773 
  33   1.0000      -0.571273       -15.5451 
  34   1.0000      -0.541752       -14.7418 
  35   1.0000      -0.536180       -14.5902 
  36   1.0000      -0.530517       -14.4361 
  37   1.0000      -0.511887       -13.9292 
  38   1.0000      -0.499780       -13.5997 
  39   1.0000      -0.493544       -13.4300 
  40   1.0000      -0.488207       -13.2848 
  41   1.0000      -0.475666       -12.9435 
  42   1.0000      -0.474087       -12.9006 
  43   1.0000      -0.452980       -12.3262 
  44   1.0000      -0.426805       -11.6140 
  45   1.0000      -0.425923       -11.5899 
  46   1.0000      -0.405622       -11.0375 
  47   1.0000      -0.335608        -9.1323 
  48   1.0000      -0.333411        -9.0726 
  49   1.0000      -0.297018        -8.0823 
  50   1.0000      -0.275923        -7.5082 
  51   1.0000      -0.245169        -6.6714 
  52   0.0000       0.078716         2.1420 
  53   0.0000       0.119478         3.2512 
  54   0.0000       0.128036         3.4840 
  55   0.0000       0.155910         4.2425 
  56   0.0000       0.208899         5.6844 
  57   0.0000       0.210465         5.7270 
  58   0.0000       0.212488         5.7821 
  59   0.0000       0.232708         6.3323 
  60   0.0000       0.234160         6.3718 
  61   0.0000       0.245957         6.6928 
  62   0.0000       0.248199         6.7538 
  63   0.0000       0.250687         6.8215 
  64   0.0000       0.262523         7.1436 
  65   0.0000       0.263198         7.1620 
  66   0.0000       0.266909         7.2630 
  67   0.0000       0.280429         7.6309 
  68   0.0000       0.281787         7.6678 
  69   0.0000       0.300363         8.1733 
  70   0.0000       0.303029         8.2458 
  71   0.0000       0.305844         8.3224 
  72   0.0000       0.312581         8.5058 
  73   0.0000       0.319394         8.6912 
  74   0.0000       0.342918         9.3313 
  75   0.0000       0.345921         9.4130 
  76   0.0000       0.353399         9.6165 
  77   0.0000       0.358852         9.7649 
  78   0.0000       0.398497        10.8437 
  79   0.0000       0.400513        10.8985 
  80   0.0000       0.424988        11.5645 
  81   0.0000       0.426755        11.6126 
  82   0.0000       0.438449        11.9308 
  83   0.0000       0.439347        11.9552 
  84   0.0000       0.441226        12.0064 
  85   0.0000       0.480096        13.0641 
  86   0.0000       0.482052        13.1173 
  87   0.0000       0.498887        13.5754 
  88   0.0000       0.505020        13.7423 
  89   0.0000       0.515381        14.0242 
  90   0.0000       0.564922        15.3723 
  91   0.0000       0.566439        15.4136 
  92   0.0000       0.609746        16.5920 
  93   0.0000       0.610784        16.6203 
  94   0.0000       0.659728        17.9521 
  95   0.0000       0.660937        17.9850 
  96   0.0000       0.689929        18.7739 
  97   0.0000       0.733040        19.9470 
  98   0.0000       0.741332        20.1727 
  99   0.0000       0.750245        20.4152 
 100   0.0000       0.762423        20.7466 
 101   0.0000       0.777740        21.1634 
 102   0.0000       0.781825        21.2745 
 103   0.0000       0.789890        21.4940 
 104   0.0000       0.810840        22.0641 
 105   0.0000       0.819137        22.2898 
 106   0.0000       0.843066        22.9410 
 107   0.0000       0.844222        22.9725 
 108   0.0000       0.853526        23.2256 
 109   0.0000       0.857062        23.3219 
 110   0.0000       0.863625        23.5004 
 111   0.0000       0.871389        23.7117 
 112   0.0000       0.875289        23.8178 
 113   0.0000       0.904559        24.6143 
 114   0.0000       0.909450        24.7474 
 115   0.0000       0.910535        24.7769 
 116   0.0000       0.917954        24.9788 
 117   0.0000       0.921335        25.0708 
 118   0.0000       0.923397        25.1269 
 119   0.0000       0.925250        25.1773 
 120   0.0000       0.928813        25.2743 
 121   0.0000       0.933670        25.4065 
 122   0.0000       0.950777        25.8720 
 123   0.0000       0.963497        26.2181 
 124   0.0000       0.968694        26.3595 
 125   0.0000       0.986221        26.8364 
 126   0.0000       0.996747        27.1229 
 127   0.0000       1.001890        27.2628 
 128   0.0000       1.007878        27.4258 
 129   0.0000       1.012761        27.5586 
 130   0.0000       1.022631        27.8272 
 131   0.0000       1.071794        29.1650 
 132   0.0000       1.071990        29.1703 
 133   0.0000       1.083040        29.4710 
 134   0.0000       1.115035        30.3417 
 135   0.0000       1.119049        30.4509 
 136   0.0000       1.130120        30.7521 
 137   0.0000       1.149911        31.2907 
 138   0.0000       1.164203        31.6796 
 139   0.0000       1.176854        32.0238 
 140   0.0000       1.183337        32.2002 
 141   0.0000       1.225143        33.3378 
 142   0.0000       1.247871        33.9563 
 143   0.0000       1.264896        34.4196 
 144   0.0000       1.286099        34.9965 
 145   0.0000       1.302695        35.4481 
 146   0.0000       1.307288        35.5731 
 147   0.0000       1.316354        35.8198 
 148   0.0000       1.350014        36.7358 
 149   0.0000       1.351899        36.7871 
 150   0.0000       1.388818        37.7917 
 151   0.0000       1.398275        38.0490 
 152   0.0000       1.401644        38.1407 
 153   0.0000       1.417792        38.5801 
 154   0.0000       1.428387        38.8684 
 155   0.0000       1.436082        39.0778 
 156   0.0000       1.462701        39.8021 
 157   0.0000       1.493883        40.6506 
 158   0.0000       1.511483        41.1295 
 159   0.0000       1.532287        41.6956 
 160   0.0000       1.545157        42.0458 
 161   0.0000       1.550663        42.1957 
 162   0.0000       1.554699        42.3055 
 163   0.0000       1.568412        42.6786 
 164   0.0000       1.586871        43.1810 
 165   0.0000       1.608526        43.7702 
 166   0.0000       1.623293        44.1721 
 167   0.0000       1.659087        45.1460 
 168   0.0000       1.683672        45.8150 
 169   0.0000       1.687277        45.9131 
 170   0.0000       1.701771        46.3075 
 171   0.0000       1.739389        47.3312 
 172   0.0000       1.746774        47.5321 
 173   0.0000       1.760033        47.8929 
 174   0.0000       1.806405        49.1548 
 175   0.0000       1.821986        49.5787 
 176   0.0000       1.833681        49.8970 
 177   0.0000       1.842515        50.1374 
 178   0.0000       1.875394        51.0321 
 179   0.0000       1.893893        51.5355 
 180   0.0000       1.914671        52.1008 
 181   0.0000       1.922765        52.3211 
 182   0.0000       1.928709        52.4828 
 183   0.0000       1.939006        52.7630 
 184   0.0000       1.987291        54.0769 
 185   0.0000       1.994717        54.2790 
 186   0.0000       2.017633        54.9026 
 187   0.0000       2.029700        55.2310 
 188   0.0000       2.036604        55.4188 
 189   0.0000       2.042834        55.5884 
 190   0.0000       2.051918        55.8355 
 191   0.0000       2.064025        56.1650 
 192   0.0000       2.077954        56.5440 
 193   0.0000       2.087929        56.8154 
 194   0.0000       2.091676        56.9174 
 195   0.0000       2.097602        57.0787 
 196   0.0000       2.113151        57.5018 
 197   0.0000       2.116517        57.5934 
 198   0.0000       2.120933        57.7135 
 199   0.0000       2.147867        58.4464 
 200   0.0000       2.151628        58.5488 
 201   0.0000       2.180969        59.3472 
 202   0.0000       2.185589        59.4729 
 203   0.0000       2.192580        59.6631 
 204   0.0000       2.196031        59.7571 
 205   0.0000       2.205648        60.0187 
 206   0.0000       2.208532        60.0972 
 207   0.0000       2.229583        60.6700 
 208   0.0000       2.232387        60.7463 
 209   0.0000       2.238599        60.9154 
 210   0.0000       2.243397        61.0459 
 211   0.0000       2.246616        61.1335 
 212   0.0000       2.257952        61.4420 
 213   0.0000       2.280047        62.0432 
 214   0.0000       2.294763        62.4437 
 215   0.0000       2.302499        62.6542 
 216   0.0000       2.324791        63.2608 
 217   0.0000       2.363654        64.3183 
 218   0.0000       2.366026        64.3828 
 219   0.0000       2.374888        64.6240 
 220   0.0000       2.379851        64.7590 
 221   0.0000       2.400610        65.3239 
 222   0.0000       2.420870        65.8752 
 223   0.0000       2.443058        66.4790 
 224   0.0000       2.453948        66.7753 
 225   0.0000       2.496999        67.9468 
 226   0.0000       2.507761        68.2396 
 227   0.0000       2.523553        68.6694 
 228   0.0000       2.525712        68.7281 
 229   0.0000       2.548989        69.3615 
 230   0.0000       2.564202        69.7755 
 231   0.0000       2.589999        70.4775 
 232   0.0000       2.604996        70.8855 
 233   0.0000       2.625883        71.4539 
 234   0.0000       2.677968        72.8712 
 235   0.0000       2.689813        73.1935 
 236   0.0000       2.700744        73.4910 
 237   0.0000       2.702852        73.5483 
 238   0.0000       2.722424        74.0809 
 239   0.0000       2.724102        74.1266 
 240   0.0000       2.743418        74.6522 
 241   0.0000       2.746641        74.7399 
 242   0.0000       2.758225        75.0551 
 243   0.0000       2.764717        75.2318 
 244   0.0000       2.796897        76.1074 
 245   0.0000       2.812192        76.5236 
 246   0.0000       2.814768        76.5937 
 247   0.0000       2.851853        77.6029 
 248   0.0000       2.874619        78.2223 
 249   0.0000       2.885162        78.5093 
 250   0.0000       2.921773        79.5055 
 251   0.0000       2.946381        80.1751 
 252   0.0000       2.960803        80.5675 
 253   0.0000       2.971881        80.8690 
 254   0.0000       2.981488        81.1304 
 255   0.0000       2.994165        81.4754 
 256   0.0000       3.005276        81.7777 
 257   0.0000       3.042623        82.7940 
 258   0.0000       3.047967        82.9394 
 259   0.0000       3.071737        83.5862 
 260   0.0000       3.084693        83.9388 
 261   0.0000       3.087619        84.0184 
 262   0.0000       3.095794        84.2408 
 263   0.0000       3.136346        85.3443 
 264   0.0000       3.142139        85.5020 
 265   0.0000       3.154408        85.8358 
 266   0.0000       3.205393        87.2232 
 267   0.0000       3.205902        87.2370 
 268   0.0000       3.221815        87.6700 
 269   0.0000       3.228866        87.8619 
 270   0.0000       3.252963        88.5176 
 271   0.0000       3.264470        88.8308 
 272   0.0000       3.285758        89.4100 
 273   0.0000       3.295797        89.6832 
 274   0.0000       3.319820        90.3369 
 275   0.0000       3.336532        90.7917 
 276   0.0000       3.344624        91.0118 
 277   0.0000       3.358757        91.3964 
 278   0.0000       3.370033        91.7032 
 279   0.0000       3.379351        91.9568 
 280   0.0000       3.396402        92.4208 
 281   0.0000       3.420017        93.0634 
 282   0.0000       3.431733        93.3822 
 283   0.0000       3.456441        94.0545 
 284   0.0000       3.462477        94.2188 
 285   0.0000       3.520942        95.8097 
 286   0.0000       3.551619        96.6445 
 287   0.0000       3.553082        96.6843 
 288   0.0000       3.572592        97.2152 
 289   0.0000       3.666680        99.7754 
 290   0.0000       3.718653       101.1897 
 291   0.0000       3.721304       101.2618 
 292   0.0000       3.801511       103.4444 
 293   0.0000       3.811585       103.7185 
 294   0.0000       3.830620       104.2365 
 295   0.0000       3.865297       105.1801 
 296   0.0000       3.916414       106.5711 
 297   0.0000       4.039610       109.9234 
 298   0.0000      24.941750       678.6995 
 299   0.0000      85.985145      2339.7747 

                 SPIN DOWN ORBITALS
  NO   OCC          E(Eh)            E(eV) 
   0   1.0000     -15.603680      -424.5977 
   1   1.0000     -15.574941      -423.8157 
   2   1.0000     -15.479194      -421.2103 
   3   1.0000     -15.476556      -421.1385 
   4   1.0000     -15.476546      -421.1382 
   5   1.0000     -11.252823      -306.2049 
   6   1.0000     -11.251497      -306.1688 
   7   1.0000     -11.250789      -306.1495 
   8   1.0000     -11.234957      -305.7187 
   9   1.0000     -11.234880      -305.7166 
  10   1.0000     -11.231944      -305.6367 
  11   1.0000      -2.935368       -79.8754 
  12   1.0000      -1.798776       -48.9472 
  13   1.0000      -1.761505       -47.9330 
  14   1.0000      -1.756481       -47.7963 
  15   1.0000      -1.209458       -32.9110 
  16   1.0000      -1.172784       -31.9131 
  17   1.0000      -1.084318       -29.5058 
  18   1.0000      -1.082191       -29.4479 
  19   1.0000      -1.066769       -29.0283 
  20   1.0000      -0.944429       -25.6992 
  21   1.0000      -0.943257       -25.6673 
  22   1.0000      -0.873914       -23.7804 
  23   1.0000      -0.784116       -21.3369 
  24   1.0000      -0.782963       -21.3055 
  25   1.0000      -0.745622       -20.2894 
  26   1.0000      -0.669513       -18.2184 
  27   1.0000      -0.667657       -18.1679 
  28   1.0000      -0.639369       -17.3981 
  29   1.0000      -0.636406       -17.3175 
  30   1.0000      -0.635090       -17.2817 
  31   1.0000      -0.609567       -16.5872 
  32   1.0000      -0.604905       -16.4603 
  33   1.0000      -0.571519       -15.5518 
  34   1.0000      -0.541428       -14.7330 
  35   1.0000      -0.535480       -14.5711 
  36   1.0000      -0.530244       -14.4287 
  37   1.0000      -0.512281       -13.9399 
  38   1.0000      -0.499693       -13.5973 
  39   1.0000      -0.493191       -13.4204 
  40   1.0000      -0.487289       -13.2598 
  41   1.0000      -0.474245       -12.9048 
  42   1.0000      -0.472006       -12.8439 
  43   1.0000      -0.452698       -12.3185 
  44   1.0000      -0.425283       -11.5725 
  45   1.0000      -0.424478       -11.5506 
  46   1.0000      -0.405481       -11.0337 
  47   1.0000      -0.333431        -9.0731 
  48   1.0000      -0.325348        -8.8532 
  49   1.0000      -0.298365        -8.1189 
  50   1.0000      -0.220793        -6.0081 
  51   0.0000       0.079263         2.1568 
  52   0.0000       0.119561         3.2534 
  53   0.0000       0.128051         3.4845 
  54   0.0000       0.156062         4.2467 
  55   0.0000       0.191112         5.2004 
  56   0.0000       0.211400         5.7525 
  57   0.0000       0.214062         5.8249 
  58   0.0000       0.214815         5.8454 
  59   0.0000       0.237270         6.4564 
  60   0.0000       0.248423         6.7599 
  61   0.0000       0.249216         6.7815 
  62   0.0000       0.253493         6.8979 
  63   0.0000       0.256577         6.9818 
  64   0.0000       0.264054         7.1853 
  65   0.0000       0.267560         7.2807 
  66   0.0000       0.269633         7.3371 
  67   0.0000       0.283395         7.7116 
  68   0.0000       0.284572         7.7436 
  69   0.0000       0.301167         8.1952 
  70   0.0000       0.304344         8.2816 
  71   0.0000       0.307263         8.3610 
  72   0.0000       0.314389         8.5550 
  73   0.0000       0.320576         8.7233 
  74   0.0000       0.344759         9.3814 
  75   0.0000       0.353672         9.6239 
  76   0.0000       0.355671         9.6783 
  77   0.0000       0.360369         9.8061 
  78   0.0000       0.400132        10.8881 
  79   0.0000       0.405082        11.0229 
  80   0.0000       0.427157        11.6235 
  81   0.0000       0.429568        11.6891 
  82   0.0000       0.441550        12.0152 
  83   0.0000       0.442961        12.0536 
  84   0.0000       0.448665        12.2088 
  85   0.0000       0.482927        13.1411 
  86   0.0000       0.485497        13.2110 
  87   0.0000       0.504444        13.7266 
  88   0.0000       0.519856        14.1460 
[...]
19 H  py              0.1       1.5       0.6       1.1       0.6       1.0
20 H  s               0.1       2.1       0.3       0.7       0.9       0.3
20 H  pz              0.0       0.2       0.0       0.4       0.0       0.0
20 H  px              0.5       0.1       0.5       0.0       0.0       4.5
20 H  py              0.0       0.0       0.4       0.3       0.6       0.0
21 C  s               1.3       1.6       0.5       0.2       0.6       0.2
21 C  pz              0.6       0.1       0.7       0.1       0.3       2.5
21 C  px              4.3       0.8      12.8       0.4       0.2       4.8
21 C  py              0.5       0.1       2.2       0.5       0.0       0.2
21 C  dxz             0.1       1.4       0.0       0.1       0.0       0.4
21 C  dyz             0.8       0.0       0.0       0.3       0.4       2.0
21 C  dx2y2           0.0       3.8       1.5       0.5       0.3       0.1
21 C  dxy             0.0       0.5       0.3       0.3       0.7       0.0
22 H  s               0.4       0.3       1.1       0.2       0.1       0.5
22 H  pz              1.0       2.0       0.0       1.1       0.9       6.4
22 H  px              0.2       0.5       0.1       0.4       0.1       0.0
22 H  py              0.0       0.0       0.5       0.7       0.1       0.0
23 H  s               1.1       1.7       0.7       0.2       0.1       0.1
23 H  pz              0.9       0.0       0.0       1.1       0.0       1.6
23 H  px              0.2       0.0       0.3       0.0       0.1       0.0
23 H  py              0.0       0.0       0.1       0.0       0.1       0.1
24 C  s               0.7       0.5       0.2       0.9       0.3       3.3
24 C  pz              4.4       0.5       1.9       0.6       0.3       2.8
24 C  px              0.1       0.3       0.5       2.4       0.5       1.1
24 C  py              2.3       0.5       0.4       0.4       0.5       0.7
24 C  dz2             0.0       0.2       0.5       0.0       0.1       0.9
24 C  dxz             0.6       0.2       0.2       0.0       0.1       0.3
24 C  dyz             0.1       0.0       0.6       0.2       0.0       0.3
24 C  dx2y2           0.0       0.9       0.2       0.5       0.0       0.3
24 C  dxy             0.0       0.2       0.6       0.5       0.2       0.7
25 H  s               1.2       0.0       3.9       2.9       0.3       3.9
25 H  pz              0.8       0.1       1.4       0.0       0.4       0.2
25 H  px              0.1       0.0       0.1       0.1       0.6       0.0
25 H  py              0.3       0.0       0.1       1.1       0.2       1.1
26 H  s               1.0       0.6       2.0       1.5       0.1       0.8
26 H  pz              0.0       0.5       1.1       1.1       0.1       0.8
26 H  px              0.2       0.1       0.2       0.1       0.4       0.0
26 H  py              0.0       0.1       0.1       0.2       0.3       0.0
27 H  s               0.6       1.9       0.4       0.5       0.2       0.1
27 H  pz              0.3       0.1       0.0       0.3       1.1       0.0
27 H  px              0.8       0.1       0.0       1.0       0.1       0.0
27 H  py              1.2       0.5       2.7       0.0       0.2       0.2
28 H  s               0.1       1.4       0.1       0.7       0.1       0.6
28 H  pz              0.2       0.2       0.0       0.7       0.1       0.1
28 H  px              0.0       0.0       0.0       1.7       0.7       0.5
28 H  py              0.0       0.9       0.1       0.1       0.2       0.0
29 H  s               0.6       0.7       0.8       0.6       0.1       0.7
29 H  pz              0.2       0.1       0.2       0.0       0.4       0.0
29 H  px              0.3       0.0       0.3       0.3       0.0       0.4


QR-MO GENERATION
 Dim     =  300
 Mult    =    2
 NEl     =  103
 N(DOMO) =   51
 N(SOMO) =    1
 N(VMO)  =  248


                ***Quasi-Restricted Orbitals were saved in Mo-TAEA-NH3_0_2_UHF_def2-tzvpp_def2-svp.sp.qro***

Orbital Energies of Quasi-Restricted MO's
   0( 2) :   -15.603680 a.u.  -424.598 eV
   1( 2) :   -15.574941 a.u.  -423.816 eV
   2( 2) :   -15.479194 a.u.  -421.210 eV
   3( 2) :   -15.476556 a.u.  -421.139 eV
   4( 2) :   -15.476545 a.u.  -421.138 eV
   5( 2) :   -11.252823 a.u.  -306.205 eV
   6( 2) :   -11.251497 a.u.  -306.169 eV
   7( 2) :   -11.250789 a.u.  -306.150 eV
   8( 2) :   -11.234957 a.u.  -305.719 eV
   9( 2) :   -11.234879 a.u.  -305.717 eV
  10( 2) :   -11.231944 a.u.  -305.637 eV
  11( 2) :    -2.935154 a.u.   -79.870 eV
  12( 2) :    -1.798749 a.u.   -48.946 eV
  13( 2) :    -1.760799 a.u.   -47.914 eV
  14( 2) :    -1.755704 a.u.   -47.775 eV
  15( 2) :    -1.209451 a.u.   -32.911 eV
  16( 2) :    -1.172778 a.u.   -31.913 eV
  17( 2) :    -1.084306 a.u.   -29.505 eV
  18( 2) :    -1.082185 a.u.   -29.448 eV
  19( 2) :    -1.066762 a.u.   -29.028 eV
  20( 2) :    -0.944423 a.u.   -25.699 eV
  21( 2) :    -0.943252 a.u.   -25.667 eV
  22( 2) :    -0.873905 a.u.   -23.780 eV
  23( 2) :    -0.784110 a.u.   -21.337 eV
  24( 2) :    -0.782958 a.u.   -21.305 eV
  25( 2) :    -0.745614 a.u.   -20.289 eV
  26( 2) :    -0.669510 a.u.   -18.218 eV
  27( 2) :    -0.667642 a.u.   -18.167 eV
  28( 2) :    -0.639363 a.u.   -17.398 eV
  29( 2) :    -0.636397 a.u.   -17.317 eV
  30( 2) :    -0.635072 a.u.   -17.281 eV
  31( 2) :    -0.609546 a.u.   -16.587 eV
  32( 2) :    -0.604897 a.u.   -16.460 eV
  33( 2) :    -0.571511 a.u.   -15.552 eV
  34( 2) :    -0.541403 a.u.   -14.732 eV
  35( 2) :    -0.535427 a.u.   -14.570 eV
  36( 2) :    -0.530232 a.u.   -14.428 eV
  37( 2) :    -0.512261 a.u.   -13.939 eV
  38( 2) :    -0.499681 a.u.   -13.597 eV
  39( 2) :    -0.493179 a.u.   -13.420 eV
  40( 2) :    -0.487280 a.u.   -13.260 eV
  41( 2) :    -0.474191 a.u.   -12.903 eV
  42( 2) :    -0.471957 a.u.   -12.843 eV
  43( 2) :    -0.452646 a.u.   -12.317 eV
  44( 2) :    -0.425202 a.u.   -11.570 eV
  45( 2) :    -0.424398 a.u.   -11.548 eV
  46( 2) :    -0.405429 a.u.   -11.032 eV
  47( 2) :    -0.333341 a.u.    -9.071 eV
  48( 2) :    -0.325215 a.u.    -8.850 eV
  49( 2) :    -0.298337 a.u.    -8.118 eV
  50( 2) :    -0.220507 a.u.    -6.000 eV
  51( 1) :    -0.028875 a.u.    -0.786 eV alpha=   -8.044 beta=    6.473
  52( 0) :     0.078711 a.u.     2.142 eV
  53( 0) :     0.119474 a.u.     3.251 eV
  54( 0) :     0.128035 a.u.     3.484 eV
  55( 0) :     0.155909 a.u.     4.243 eV
  56( 0) :     0.208809 a.u.     5.682 eV
  57( 0) :     0.210421 a.u.     5.726 eV
  58( 0) :     0.212472 a.u.     5.782 eV
  59( 0) :     0.232642 a.u.     6.330 eV
  60( 0) :     0.234047 a.u.     6.369 eV
  61( 0) :     0.245885 a.u.     6.691 eV
  62( 0) :     0.248189 a.u.     6.754 eV
  63( 0) :     0.250634 a.u.     6.820 eV
  64( 0) :     0.262514 a.u.     7.143 eV
  65( 0) :     0.263194 a.u.     7.162 eV
  66( 0) :     0.266900 a.u.     7.263 eV
  67( 0) :     0.280405 a.u.     7.630 eV
  68( 0) :     0.281780 a.u.     7.668 eV
  69( 0) :     0.300358 a.u.     8.173 eV
  70( 0) :     0.303015 a.u.     8.245 eV
  71( 0) :     0.305838 a.u.     8.322 eV
  72( 0) :     0.312568 a.u.     8.505 eV
  73( 0) :     0.319390 a.u.     8.691 eV
  74( 0) :     0.342868 a.u.     9.330 eV
  75( 0) :     0.345888 a.u.     9.412 eV
  76( 0) :     0.353394 a.u.     9.616 eV
  77( 0) :     0.358849 a.u.     9.765 eV
  78( 0) :     0.398468 a.u.    10.843 eV
  79( 0) :     0.400501 a.u.    10.898 eV
  80( 0) :     0.424970 a.u.    11.564 eV
  81( 0) :     0.426740 a.u.    11.612 eV
  82( 0) :     0.438421 a.u.    11.930 eV
  83( 0) :     0.439314 a.u.    11.954 eV
  84( 0) :     0.441217 a.u.    12.006 eV
  85( 0) :     0.480076 a.u.    13.064 eV
  86( 0) :     0.482034 a.u.    13.117 eV
  87( 0) :     0.498855 a.u.    13.575 eV
  88( 0) :     0.504924 a.u.    13.740 eV
  89( 0) :     0.515353 a.u.    14.023 eV
  90( 0) :     0.564891 a.u.    15.371 eV
  91( 0) :     0.566397 a.u.    15.412 eV
  92( 0) :     0.609719 a.u.    16.591 eV
  93( 0) :     0.610766 a.u.    16.620 eV
  94( 0) :     0.659718 a.u.    17.952 eV
  95( 0) :     0.660933 a.u.    17.985 eV
  96( 0) :     0.689926 a.u.    18.774 eV
  97( 0) :     0.733025 a.u.    19.947 eV
  98( 0) :     0.741317 a.u.    20.172 eV
  99( 0) :     0.750239 a.u.    20.415 eV
 100( 0) :     0.762419 a.u.    20.746 eV
 101( 0) :     0.777716 a.u.    21.163 eV
 102( 0) :     0.781821 a.u.    21.274 eV
 103( 0) :     0.789887 a.u.    21.494 eV
 104( 0) :     0.810837 a.u.    22.064 eV
 105( 0) :     0.819129 a.u.    22.290 eV
 106( 0) :     0.843063 a.u.    22.941 eV
 107( 0) :     0.844215 a.u.    22.972 eV
 108( 0) :     0.853523 a.u.    23.226 eV
 109( 0) :     0.857060 a.u.    23.322 eV
 110( 0) :     0.863624 a.u.    23.500 eV
 111( 0) :     0.871380 a.u.    23.711 eV
 112( 0) :     0.875283 a.u.    23.818 eV
 113( 0) :     0.904558 a.u.    24.614 eV
 114( 0) :     0.909448 a.u.    24.747 eV
 115( 0) :     0.910532 a.u.    24.777 eV
 116( 0) :     0.917948 a.u.    24.979 eV
 117( 0) :     0.921331 a.u.    25.071 eV
 118( 0) :     0.923393 a.u.    25.127 eV
 119( 0) :     0.925246 a.u.    25.177 eV
 120( 0) :     0.928810 a.u.    25.274 eV
 121( 0) :     0.933666 a.u.    25.406 eV
 122( 0) :     0.950776 a.u.    25.872 eV
 123( 0) :     0.963492 a.u.    26.218 eV
 124( 0) :     0.968693 a.u.    26.359 eV
 125( 0) :     0.986219 a.u.    26.836 eV
 126( 0) :     0.996745 a.u.    27.123 eV
 127( 0) :     1.001875 a.u.    27.262 eV
 128( 0) :     1.007876 a.u.    27.426 eV
 129( 0) :     1.012758 a.u.    27.559 eV
 130( 0) :     1.022627 a.u.    27.827 eV
 131( 0) :     1.071778 a.u.    29.165 eV
 132( 0) :     1.071929 a.u.    29.169 eV
 133( 0) :     1.083037 a.u.    29.471 eV
 134( 0) :     1.115025 a.u.    30.341 eV
 135( 0) :     1.119007 a.u.    30.450 eV
 136( 0) :     1.130106 a.u.    30.752 eV
 137( 0) :     1.149905 a.u.    31.290 eV
 138( 0) :     1.164198 a.u.    31.679 eV
 139( 0) :     1.176821 a.u.    32.023 eV
 140( 0) :     1.183317 a.u.    32.200 eV
 141( 0) :     1.225119 a.u.    33.337 eV
 142( 0) :     1.247861 a.u.    33.956 eV
 143( 0) :     1.264859 a.u.    34.419 eV
 144( 0) :     1.286096 a.u.    34.996 eV
 145( 0) :     1.302656 a.u.    35.447 eV
 146( 0) :     1.307282 a.u.    35.573 eV
 147( 0) :     1.316337 a.u.    35.819 eV
 148( 0) :     1.349972 a.u.    36.735 eV
 149( 0) :     1.351888 a.u.    36.787 eV
 150( 0) :     1.388759 a.u.    37.790 eV
 151( 0) :     1.398239 a.u.    38.048 eV
 152( 0) :     1.401632 a.u.    38.140 eV
 153( 0) :     1.417723 a.u.    38.578 eV
 154( 0) :     1.428346 a.u.    38.867 eV
 155( 0) :     1.436064 a.u.    39.077 eV
 156( 0) :     1.462693 a.u.    39.802 eV
 157( 0) :     1.493868 a.u.    40.650 eV
 158( 0) :     1.511450 a.u.    41.129 eV
 159( 0) :     1.532284 a.u.    41.696 eV
 160( 0) :     1.545148 a.u.    42.046 eV
 161( 0) :     1.550656 a.u.    42.195 eV
 162( 0) :     1.554689 a.u.    42.305 eV
 163( 0) :     1.568408 a.u.    42.679 eV
 164( 0) :     1.586866 a.u.    43.181 eV
 165( 0) :     1.608517 a.u.    43.770 eV
 166( 0) :     1.623292 a.u.    44.172 eV
 167( 0) :     1.659071 a.u.    45.146 eV
 168( 0) :     1.683661 a.u.    45.815 eV
 169( 0) :     1.687268 a.u.    45.913 eV
 170( 0) :     1.701770 a.u.    46.308 eV
 171( 0) :     1.739387 a.u.    47.331 eV
 172( 0) :     1.746772 a.u.    47.532 eV
 173( 0) :     1.760022 a.u.    47.893 eV
 174( 0) :     1.806403 a.u.    49.155 eV
 175( 0) :     1.821980 a.u.    49.579 eV
 176( 0) :     1.833681 a.u.    49.897 eV
 177( 0) :     1.842512 a.u.    50.137 eV
 178( 0) :     1.875394 a.u.    51.032 eV
 179( 0) :     1.893889 a.u.    51.535 eV
 180( 0) :     1.914666 a.u.    52.101 eV
 181( 0) :     1.922759 a.u.    52.321 eV
 182( 0) :     1.928704 a.u.    52.483 eV
 183( 0) :     1.938999 a.u.    52.763 eV
 184( 0) :     1.987285 a.u.    54.077 eV
 185( 0) :     1.994712 a.u.    54.279 eV
 186( 0) :     2.017632 a.u.    54.903 eV
 187( 0) :     2.029699 a.u.    55.231 eV
 188( 0) :     2.036604 a.u.    55.419 eV
 189( 0) :     2.042833 a.u.    55.588 eV
 190( 0) :     2.051916 a.u.    55.835 eV
 191( 0) :     2.064023 a.u.    56.165 eV
 192( 0) :     2.077949 a.u.    56.544 eV
 193( 0) :     2.087927 a.u.    56.815 eV
 194( 0) :     2.091675 a.u.    56.917 eV
 195( 0) :     2.097601 a.u.    57.079 eV
 196( 0) :     2.113150 a.u.    57.502 eV
 197( 0) :     2.116516 a.u.    57.593 eV
 198( 0) :     2.120929 a.u.    57.713 eV
 199( 0) :     2.147865 a.u.    58.446 eV
 200( 0) :     2.151625 a.u.    58.549 eV
 201( 0) :     2.180966 a.u.    59.347 eV
 202( 0) :     2.185587 a.u.    59.473 eV
 203( 0) :     2.192578 a.u.    59.663 eV
 204( 0) :     2.196030 a.u.    59.757 eV
 205( 0) :     2.205636 a.u.    60.018 eV
 206( 0) :     2.208524 a.u.    60.097 eV
 207( 0) :     2.229580 a.u.    60.670 eV
 208( 0) :     2.232381 a.u.    60.746 eV
 209( 0) :     2.238594 a.u.    60.915 eV
 210( 0) :     2.243395 a.u.    61.046 eV
 211( 0) :     2.246613 a.u.    61.133 eV
 212( 0) :     2.257952 a.u.    61.442 eV
 213( 0) :     2.280047 a.u.    62.043 eV
 214( 0) :     2.294762 a.u.    62.444 eV
 215( 0) :     2.302498 a.u.    62.654 eV
 216( 0) :     2.324789 a.u.    63.261 eV
 217( 0) :     2.363653 a.u.    64.318 eV
 218( 0) :     2.366025 a.u.    64.383 eV
 219( 0) :     2.374886 a.u.    64.624 eV
 220( 0) :     2.379848 a.u.    64.759 eV
 221( 0) :     2.400609 a.u.    65.324 eV
 222( 0) :     2.420869 a.u.    65.875 eV
 223( 0) :     2.443056 a.u.    66.479 eV
 224( 0) :     2.453947 a.u.    66.775 eV
 225( 0) :     2.496998 a.u.    67.947 eV
 226( 0) :     2.507757 a.u.    68.240 eV
 227( 0) :     2.523551 a.u.    68.669 eV
 228( 0) :     2.525710 a.u.    68.728 eV
 229( 0) :     2.548987 a.u.    69.361 eV
 230( 0) :     2.564197 a.u.    69.775 eV
 231( 0) :     2.589998 a.u.    70.477 eV
 232( 0) :     2.604992 a.u.    70.885 eV
 233( 0) :     2.625882 a.u.    71.454 eV
 234( 0) :     2.677966 a.u.    72.871 eV
 235( 0) :     2.689807 a.u.    73.193 eV
 236( 0) :     2.700738 a.u.    73.491 eV
 237( 0) :     2.702850 a.u.    73.548 eV
 238( 0) :     2.722423 a.u.    74.081 eV
 239( 0) :     2.724099 a.u.    74.126 eV
 240( 0) :     2.743414 a.u.    74.652 eV
 241( 0) :     2.746638 a.u.    74.740 eV
 242( 0) :     2.758218 a.u.    75.055 eV
 243( 0) :     2.764707 a.u.    75.231 eV
 244( 0) :     2.796896 a.u.    76.107 eV
 245( 0) :     2.812183 a.u.    76.523 eV
 246( 0) :     2.814762 a.u.    76.594 eV
 247( 0) :     2.851841 a.u.    77.603 eV
 248( 0) :     2.874591 a.u.    78.222 eV
 249( 0) :     2.885152 a.u.    78.509 eV
 250( 0) :     2.921755 a.u.    79.505 eV
 251( 0) :     2.946377 a.u.    80.175 eV
 252( 0) :     2.960790 a.u.    80.567 eV
 253( 0) :     2.971867 a.u.    80.869 eV
 254( 0) :     2.981483 a.u.    81.130 eV
 255( 0) :     2.994161 a.u.    81.475 eV
 256( 0) :     3.005268 a.u.    81.778 eV
 257( 0) :     3.042584 a.u.    82.793 eV
 258( 0) :     3.047943 a.u.    82.939 eV
 259( 0) :     3.071723 a.u.    83.586 eV
 260( 0) :     3.084681 a.u.    83.938 eV
 261( 0) :     3.087609 a.u.    84.018 eV
 262( 0) :     3.095793 a.u.    84.241 eV
 263( 0) :     3.136340 a.u.    85.344 eV
 264( 0) :     3.142131 a.u.    85.502 eV
 265( 0) :     3.154379 a.u.    85.835 eV
 266( 0) :     3.205382 a.u.    87.223 eV
 267( 0) :     3.205886 a.u.    87.237 eV
 268( 0) :     3.221792 a.u.    87.669 eV
 269( 0) :     3.228853 a.u.    87.862 eV
 270( 0) :     3.252943 a.u.    88.517 eV
 271( 0) :     3.264426 a.u.    88.830 eV
 272( 0) :     3.285745 a.u.    89.410 eV
 273( 0) :     3.295789 a.u.    89.683 eV
 274( 0) :     3.319818 a.u.    90.337 eV
 275( 0) :     3.336531 a.u.    90.792 eV
 276( 0) :     3.344615 a.u.    91.012 eV
 277( 0) :     3.358756 a.u.    91.396 eV
 278( 0) :     3.370013 a.u.    91.703 eV
 279( 0) :     3.379331 a.u.    91.956 eV
 280( 0) :     3.396398 a.u.    92.421 eV
 281( 0) :     3.420001 a.u.    93.063 eV
 282( 0) :     3.431732 a.u.    93.382 eV
 283( 0) :     3.456430 a.u.    94.054 eV
 284( 0) :     3.462472 a.u.    94.219 eV
 285( 0) :     3.520938 a.u.    95.810 eV
 286( 0) :     3.551618 a.u.    96.644 eV
 287( 0) :     3.553082 a.u.    96.684 eV
 288( 0) :     3.572575 a.u.    97.215 eV
 289( 0) :     3.666668 a.u.    99.775 eV
 290( 0) :     3.718650 a.u.   101.190 eV
 291( 0) :     3.721303 a.u.   101.262 eV
 292( 0) :     3.801500 a.u.   103.444 eV
 293( 0) :     3.811574 a.u.   103.718 eV
 294( 0) :     3.830612 a.u.   104.236 eV
 295( 0) :     3.865288 a.u.   105.180 eV
 296( 0) :     3.916411 a.u.   106.571 eV
 297( 0) :     4.039606 a.u.   109.923 eV
 298( 0) :    24.941750 a.u.   678.700 eV
 299( 0) :    85.985145 a.u.  2339.775 eV
-------
TIMINGS
-------

Total SCF time: 0 days 0 hours 2 min 21 sec 

Total time                  ....     141.178 sec
Sum of individual times     ....     140.059 sec  ( 99.2%)

Fock matrix formation       ....     134.511 sec  ( 95.3%)
  Split-RI-J                ....      23.664 sec  ( 17.6% of F)
  Chain of spheres X        ....     105.300 sec  ( 78.3% of F)
  COS-X 1 center corr.      ....       0.000 sec  (  0.0% of F)
Diagonalization             ....       1.775 sec  (  1.3%)
Density matrix formation    ....       0.097 sec  (  0.1%)
Population analysis         ....       1.450 sec  (  1.0%)
Initial guess               ....       0.061 sec  (  0.0%)
Orbital Transformation      ....       0.000 sec  (  0.0%)
Orbital Orthonormalization  ....       0.000 sec  (  0.0%)
DIIS solution               ....       1.611 sec  (  1.1%)

-------------------------   --------------------
FINAL SINGLE POINT ENERGY      -577.115334926038
-------------------------   --------------------


                            ***************************************
                            *     ORCA property calculations      *
                            ***************************************

                                    ---------------------
                                    Active property flags
                                    ---------------------
   (+) Dipole Moment


------------------------------------------------------------------------------
                       ORCA ELECTRIC PROPERTIES CALCULATION
------------------------------------------------------------------------------

Dipole Moment Calculation                       ... on
Quadrupole Moment Calculation                   ... off
Polarizability Calculation                      ... off
GBWName                                         ... Mo-TAEA-NH3_0_2_UHF_def2-tzvpp_def2-svp.sp.gbw
Electron density file                           ... Mo-TAEA-NH3_0_2_UHF_def2-tzvpp_def2-svp.sp.scfp
The origin for moment calculation is the CENTER OF MASS  = (13.875726, 30.034957 26.912410)

-------------
DIPOLE MOMENT
-------------
                                X             Y             Z
Electronic contribution:    -13.53570     -11.55386     -52.10662
Nuclear contribution   :     13.08235      11.34227      51.34275
                        -----------------------------------------
Total Dipole Moment    :     -0.45335      -0.21158      -0.76387
                        -----------------------------------------
Magnitude (a.u.)       :      0.91312
Magnitude (Debye)      :      2.32096



--------------------
Rotational spectrum 
--------------------
 
Rotational constants in cm-1:     0.029881     0.022964     0.022877 
Rotational constants in MHz :   895.812205   688.437631   685.832232 

 Dipole components along the rotational axes: 
x,y,z [a.u.] :    -0.877735    -0.045861     0.247513 
x,y,z [Debye]:    -2.231024    -0.116570     0.629129 

 

Timings for individual modules:

Sum of individual times         ...      147.445 sec (=   2.457 min)
GTO integral calculation        ...        4.293 sec (=   0.072 min)   2.9 %
SCF iterations                  ...      143.152 sec (=   2.386 min)  97.1 %
                             ****ORCA TERMINATED NORMALLY****
TOTAL RUN TIME: 0 days 0 hours 2 minutes 29 seconds 931 msec
