
                                 *****************
                                 * O   R   C   A *
                                 *****************

           --- An Ab Initio, DFT and Semiempirical electronic structure package ---

                  #######################################################
                  #                        -***-                        #
                  #          Department of theory and spectroscopy      #
                  #               Directorship: Frank Neese             #
                  #        Max Planck Institute fuer Kohlenforschung    #
                  #                Kaiser Wilhelm Platz 1               #
                  #                 D-45470 Muelheim/Ruhr               #
                  #                      Germany                        #
                  #                                                     #
                  #                  All rights reserved                #
                  #                        -***-                        #
                  #######################################################


                         Program Version 4.2.0 -  RELEASE  -


 With contributions from (in alphabetic order):
   Daniel Aravena         : Magnetic Suceptibility
   Michael Atanasov       : Ab Initio Ligand Field Theory (pilot matlab implementation)
   Alexander A. Auer      : GIAO ZORA, VPT2
   Ute Becker             : Parallelization
   Giovanni Bistoni       : ED, misc. LED, open-shell LED, HFLED
   Martin Brehm           : Molecular dynamics
   Dmytro Bykov           : SCF Hessian
   Vijay G. Chilkuri      : MRCI spin determinant printing, contributions to CSF-ICE
   Dipayan Datta          : RHF DLPNO-CCSD density
   Achintya Kumar Dutta   : EOM-CC, STEOM-CC
   Dmitry Ganyushin       : Spin-Orbit,Spin-Spin,Magnetic field MRCI
   Miquel Garcia          : C-PCM Hessian, Gaussian charge scheme
   Yang Guo               : DLPNO-NEVPT2, CIM, IAO-localization
   Andreas Hansen         : Spin unrestricted coupled pair/coupled cluster methods
   Benjamin Helmich-Paris : CASSCF linear response (MC-RPA)
   Lee Huntington         : MR-EOM, pCC
   Robert Izsak           : Overlap fitted RIJCOSX, COSX-SCS-MP3, EOM
   Christian Kollmar      : KDIIS, OOCD, Brueckner-CCSD(T), CCSD density
   Simone Kossmann        : Meta GGA functionals, TD-DFT gradient, OOMP2, MP2 Hessian
   Martin Krupicka        : AUTO-CI
   Lucas Lang             : DCDCAS
   Dagmar Lenk            : GEPOL surface, SMD
   Dimitrios Liakos       : Extrapolation schemes; Compound Job, initial MDCI parallelization
   Dimitrios Manganas     : Further ROCIS development; embedding schemes
   Dimitrios Pantazis     : SARC Basis sets
   Taras Petrenko         : DFT Hessian,TD-DFT gradient, ASA, ECA, R-Raman, ABS, FL, XAS/XES, NRVS
   Peter Pinski           : DLPNO-MP2, DLPNO-MP2 Gradient
   Christoph Reimann      : Effective Core Potentials
   Marius Retegan         : Local ZFS, SOC
   Christoph Riplinger    : Optimizer, TS searches, QM/MM, DLPNO-CCSD(T), (RO)-DLPNO pert. Triples
   Tobias Risthaus        : Range-separated hybrids, TD-DFT gradient, RPA, STAB
   Michael Roemelt        : Original ROCIS implementation
   Masaaki Saitow         : Open-shell DLPNO-CCSD energy and density
   Barbara Sandhoefer     : DKH picture change effects
   Avijit Sen             : IP-ROCIS
   Kantharuban Sivalingam : CASSCF convergence, NEVPT2, FIC-MRCI
   Bernardo de Souza      : ESD, SOC TD-DFT
   Georgi Stoychev        : AutoAux, RI-MP2 NMR
   Willem Van den Heuvel  : Paramagnetic NMR
   Boris Wezisla          : Elementary symmetry handling
   Frank Wennmohs         : Technical directorship


 We gratefully acknowledge several colleagues who have allowed us to
 interface, adapt or use parts of their codes:
   Stefan Grimme, W. Hujo, H. Kruse,             : VdW corrections, initial TS optimization,
                  C. Bannwarth                     DFT functionals, gCP, sTDA/sTD-DF
   Ed Valeev, F. Pavosevic, A. Kumar             : LibInt (2-el integral package), F12 methods
   Garnet Chan, S. Sharma, J. Yang, R. Olivares  : DMRG
   Ulf Ekstrom                                   : XCFun DFT Library
   Mihaly Kallay                                 : mrcc  (arbitrary order and MRCC methods)
   Andreas Klamt, Michael Diedenhofen            : otool_cosmo (COSMO solvation model)
   Jiri Pittner, Ondrej Demel                    : Mk-CCSD
   Frank Weinhold                                : gennbo (NPA and NBO analysis)
   Christopher J. Cramer and Donald G. Truhlar   : smd solvation model
   Lars Goerigk                                  : TD-DFT with DH, B97 family of functionals
   V. Asgeirsson, H. Jonsson                     : NEB implementation
   FAccTs GmbH                                   : IRC, NEB, NEB-TS, Multilevel, MM, QM/MM, CI optimization
   S Lehtola, MJT Oliveira, MAL Marques          : LibXC Library


 Your calculation uses the libint2 library for the computation of 2-el integrals
 For citations please refer to: http://libint.valeyev.net

 Your ORCA version has been built with support for libXC version: 4.2.3
 For citations please refer to: https://tddft.org/programs/libxc/

 This ORCA versions uses:
   CBLAS   interface :  Fast vector & matrix operations
   LAPACKE interface :  Fast linear algebra routines
   SCALAPACK package :  Parallel linear algebra routines




***************************************
The coordinates will be read from file: Mo-TAEA-NH3.xyz
***************************************


----- Orbital basis set information -----
Your calculation utilizes the basis: LANL2DZ 
   H - Ne   : T. H. Dunning Jr. and P. J. Hay, Methods of Electronic Structure Theory, Vol. 2, ed. H. F. Schaefer III, Plenum Press (1977).
   Na - Hg  : P. J. Hay and W. R. Wadt, J. Chem. Phys. 82, 270 (1985).
              P. J. Hay and W. R. Wadt, J. Chem. Phys. 82, 284 (1985).
              P. J. Hay and W. R. Wadt, J. Chem. Phys. 82, 299 (1985).

----- AuxJ basis set information -----
Your calculation utilizes the AutoAux generation procedure.
  G. L. Stoychev, A. A. Auer, F. Neese, J. Chem. Theory Comput. 13, 554 (2017)

----- AuxC basis set information -----
Your calculation utilizes the AutoAux generation procedure.
  G. L. Stoychev, A. A. Auer, F. Neese, J. Chem. Theory Comput. 13, 554 (2017)

----- AuxJK basis set information -----
Your calculation utilizes the AutoAux generation procedure.
  G. L. Stoychev, A. A. Auer, F. Neese, J. Chem. Theory Comput. 13, 554 (2017)

cite the ECPs for Mo [HayWadt] as follows:
H  - Ne: T. H. Dunning Jr. and P. J. Hay, Methods El. Str. Th. Vol. 2, PLENUM PRESS (1977)
Na - Hg: P. J. Hay and W. R. Wadt, J. Chem. Phys. 82, 270 (1985)
P. J. Hay and W. R. Wadt, J. Chem. Phys. 82, 284 (1985)
P. J. Hay and W. R. Wadt, J. Chem. Phys. 82, 299 (1985)


ECP parameters for Mo [HayWadt] have been obtained from:
LANL2DZ ECP  EMSL  Basis Set Exchange Library   5/31/16 12:35 AM

================================================================================
                                        WARNINGS
                       Please study these warnings very carefully!
================================================================================


WARNING: Geometry Optimization
  ===> : Switching off AutoStart
         For restart on a previous wavefunction, please use MOREAD

INFO   : the flag for use of LIBINT has been found!

================================================================================
                                       INPUT FILE
================================================================================
NAME = Mo-TAEA-NH3_0_2_bp86_lanl2dz_6-31gpol.opt.inp
|  1> !uks bp86 lanl2dz tightscf opt
|  2> !normalprint uno autoaux
|  3> !pal8
|  4> 
|  5> %scf
|  6>   maxiter 500
|  7> end
|  8> 
|  9> %basis
| 10>   newgto H "6-31g*" end
| 11>   newgto N "6-31g*" end
| 12> end
| 13> 
| 14> %geom
| 15>   constraints
| 16>     { c 1 c }
| 17>     { c 2 c }
| 18>     { c 3 c }
| 19>     { c 4 c }
| 20>     { c 5 c }
| 21>   end
| 22> end
| 23> 
| 24> *xyzfile 0 2 Mo-TAEA-NH3.xyz
| 25> 
| 26>                          ****END OF INPUT****
================================================================================

                       *****************************
                       * Geometry Optimization Run *
                       *****************************

Geometry optimization settings:
Update method            Update   .... BFGS
Choice of coordinates    CoordSys .... Z-matrix Internals
Initial Hessian          InHess   .... Almoef's Model

Convergence Tolerances:
Energy Change            TolE     ....  5.0000e-06 Eh
Max. Gradient            TolMAXG  ....  3.0000e-04 Eh/bohr
RMS Gradient             TolRMSG  ....  1.0000e-04 Eh/bohr
Max. Displacement        TolMAXD  ....  4.0000e-03 bohr
RMS Displacement         TolRMSD  ....  2.0000e-03 bohr
Strict Convergence                ....  False
------------------------------------------------------------------------------
                        ORCA OPTIMIZATION COORDINATE SETUP
------------------------------------------------------------------------------

The optimization will be done in new redundant internal coordinates
Making redundant internal coordinates   ...  (new redundants) done
Evaluating the initial hessian          ...  (Almloef) done
Evaluating the coordinates              ...  done
Calculating the B-matrix                .... done
Calculating the G-matrix                .... done
Diagonalizing the G-matrix              .... done
Imposing constraints:
 Iter   0:  RMS(Cart)=    0.0000000000 RMS(Int)=    0.0000000000
CONVERGED
Will constrain atom 1 coordinate 1 
Will constrain atom 1 coordinate 2 
Will constrain atom 1 coordinate 3 
Will constrain atom 2 coordinate 1 
Will constrain atom 2 coordinate 2 
Will constrain atom 2 coordinate 3 
Will constrain atom 3 coordinate 1 
Will constrain atom 3 coordinate 2 
Will constrain atom 3 coordinate 3 
Will constrain atom 4 coordinate 1 
Will constrain atom 4 coordinate 2 
Will constrain atom 4 coordinate 3 
Will constrain atom 5 coordinate 1 
Will constrain atom 5 coordinate 2 
Will constrain atom 5 coordinate 3 
The first mode is                       ....  146
The number of degrees of freedom        ....   90
Storing new coordinates                 .... done

    -----------------------------------------------------------------
                    Redundant Internal Coordinates


    -----------------------------------------------------------------
         Definition                    Initial Value    Approx d2E/dq
    -----------------------------------------------------------------
      1. B(N   1,Mo  0)                  2.0015         0.598870   
      2. B(N   2,Mo  0)                  1.9983         0.605978   
      3. B(N   3,Mo  0)                  2.0113         0.577754   
      4. B(N   4,Mo  0)                  2.2058         0.282808   
      5. B(N   5,Mo  0)                  2.1691         0.323571   
      6. B(H   6,N   5)                  0.9109         0.622811   
      7. B(H   7,N   5)                  0.9101         0.624496   
      8. B(H   8,N   5)                  0.9104         0.623959   
      9. B(C   9,N   1)                  1.4613         0.430631   
     10. B(H  10,C   9)                  0.9903         0.519295   
     11. B(H  11,C   9)                  0.9882         0.523465   
     12. B(C  12,N   4)                  1.4692         0.418266   
     13. B(C  12,C   9)                  1.5282         0.376048   
     14. B(H  13,C  12)                  0.9913         0.517504   
     15. B(H  14,C  12)                  0.9887         0.522352   
     16. B(C  15,N   2)                  1.5039         0.368198   
     17. B(H  16,C  15)                  0.9908         0.518358   
     18. B(H  17,C  15)                  0.9900         0.519880   
     19. B(C  18,N   4)                  1.4982         0.376040   
     20. B(C  18,C  15)                  1.5009         0.415776   
     21. B(H  19,C  18)                  0.9910         0.518143   
     22. B(H  20,C  18)                  0.9894         0.521177   
     23. B(C  21,N   3)                  1.4822         0.398755   
     24. B(H  22,C  21)                  0.9889         0.522013   
     25. B(H  23,C  21)                  0.9912         0.517727   
     26. B(C  24,N   4)                  1.4917         0.385169   
     27. B(C  24,C  21)                  1.5155         0.394009   
     28. B(H  25,C  24)                  0.9910         0.517982   
     29. B(H  26,C  24)                  0.9907         0.518629   
     30. B(H  27,N   3)                  1.0200         0.417100   
     31. B(H  28,N   1)                  1.0200         0.417100   
     32. B(H  29,N   2)                  1.0200         0.417100   
     33. A(N   2,Mo  0,N   3)          117.4569         0.534397   
     34. A(N   3,Mo  0,N   4)           80.9229         0.463832   
     35. A(N   1,Mo  0,N   3)          116.8247         0.533209   
     36. A(N   3,Mo  0,N   5)           99.7847         0.475432   
     37. A(N   2,Mo  0,N   4)           80.9552         0.467901   
     38. A(N   2,Mo  0,N   5)           99.4546         0.479626   
     39. A(N   1,Mo  0,N   5)           99.2599         0.478584   
     40. A(N   1,Mo  0,N   2)          117.7136         0.538030   
     41. A(N   1,Mo  0,N   4)           79.6234         0.466890   
     42. A(C   9,N   1,H  28)          107.7597         0.335260   
     43. A(Mo  0,N   1,H  28)          107.7597         0.396195   
     44. A(Mo  0,N   1,C   9)          116.2159         0.448000   
     45. A(Mo  0,N   2,H  29)          108.1258         0.397017   
     46. A(Mo  0,N   2,C  15)          114.7895         0.436422   
     47. A(C  15,N   2,H  29)          108.1258         0.326682   
     48. A(C  21,N   3,H  27)          108.1138         0.331010   
     49. A(Mo  0,N   3,H  27)          108.1138         0.393709   
     50. A(Mo  0,N   3,C  21)          114.8365         0.438950   
     51. A(Mo  0,N   4,C  18)          106.8505         0.382778   
     52. A(C  12,N   4,C  18)          111.8810         0.366258   
     53. A(Mo  0,N   4,C  24)          107.3800         0.384378   
     54. A(C  12,N   4,C  24)          111.9497         0.367768   
     55. A(Mo  0,N   4,C  12)          107.5641         0.389941   
     56. A(C  18,N   4,C  24)          110.9173         0.361133   
     57. A(Mo  0,N   5,H   7)          109.5608         0.381802   
     58. A(Mo  0,N   5,H   6)          109.4791         0.381623   
     59. A(Mo  0,N   5,H   8)          109.5248         0.381746   
     60. A(H   6,N   5,H   8)          109.3895         0.341762   
     61. A(H   7,N   5,H   8)          109.5250         0.341917   
     62. A(H   6,N   5,H   7)          109.3479         0.341811   
     63. A(H  11,C   9,C  12)          110.4546         0.345494   
     64. A(N   1,C   9,H  10)          110.4107         0.350833   
     65. A(N   1,C   9,H  11)          110.4681         0.351308   
     66. A(H  10,C   9,H  11)          108.6093         0.327651   
     67. A(N   1,C   9,C  12)          106.4262         0.370410   
     68. A(H  10,C   9,C  12)          110.4713         0.345030   
     69. A(N   4,C  12,C   9)          109.2205         0.368560   
     70. A(N   4,C  12,H  13)          109.7600         0.348909   
     71. A(C   9,C  12,H  13)          109.8536         0.344830   
     72. A(N   4,C  12,H  14)          109.8542         0.349458   
     73. A(C   9,C  12,H  14)          109.8756         0.345370   
     74. A(H  13,C  12,H  14)          108.2640         0.327350   
     75. A(N   2,C  15,H  17)          110.1584         0.341778   
     76. A(H  16,C  15,H  17)          108.5241         0.327183   
     77. A(N   2,C  15,C  18)          107.5147         0.366853   
     78. A(H  16,C  15,C  18)          110.2790         0.350810   
     79. A(H  17,C  15,C  18)          110.1985         0.350983   
     80. A(N   2,C  15,H  16)          110.1672         0.341610   
     81. A(N   4,C  18,C  15)          109.7574         0.368181   
     82. A(N   4,C  18,H  19)          109.5887         0.342794   
     83. A(C  15,C  18,H  19)          109.6877         0.350785   
     84. A(N   4,C  18,H  20)          109.7355         0.343130   
     85. A(C  15,C  18,H  20)          109.7782         0.351131   
     86. A(H  19,C  18,H  20)          108.2713         0.327295   
     87. A(N   3,C  21,H  22)          110.0197         0.346620   
     88. A(N   3,C  21,H  23)          110.0648         0.346139   
     89. A(H  22,C  21,H  23)          108.3529         0.327338   
     90. A(N   3,C  21,C  24)          108.4641         0.368490   
     91. A(H  22,C  21,C  24)          110.0008         0.348054   
     92. A(H  23,C  21,C  24)          109.9353         0.347571   
     93. A(N   4,C  24,H  26)          109.6577         0.344230   
     94. A(C  21,C  24,H  26)          109.6807         0.347673   
     95. A(H  25,C  24,H  26)          108.0974         0.327014   
     96. A(N   4,C  24,C  21)          109.9710         0.366305   
     97. A(N   4,C  24,H  25)          109.6881         0.344158   
     98. A(C  21,C  24,H  25)          109.7178         0.347600   
     99. D(H  28,N   1,Mo  0,N   5)     73.0253         0.003264   
    100. D(C   9,N   1,Mo  0,N   4)     14.1877         0.003264   
    101. D(C   9,N   1,Mo  0,N   5)   -165.9956         0.003264   
    102. D(C   9,N   1,Mo  0,N   2)     88.1230         0.003264   
    103. D(C   9,N   1,Mo  0,N   3)    -60.0098         0.003264   
    104. D(H  28,N   1,Mo  0,N   3)    179.0110         0.003264   
    105. D(H  28,N   1,Mo  0,N   2)    -32.8562         0.003264   
    106. D(H  28,N   1,Mo  0,N   4)   -106.7915         0.003264   
    107. D(H  29,N   2,Mo  0,N   5)     73.1098         0.003306   
    108. D(C  15,N   2,Mo  0,N   3)     87.5895         0.003306   
    109. D(C  15,N   2,Mo  0,N   4)     12.8224         0.003306   
    110. D(C  15,N   2,Mo  0,N   5)   -166.1093         0.003306   
    111. D(H  29,N   2,Mo  0,N   1)    178.8781         0.003306   
    112. D(C  15,N   2,Mo  0,N   1)    -60.3410         0.003306   
    113. D(H  29,N   2,Mo  0,N   4)   -107.9585         0.003306   
    114. D(H  29,N   2,Mo  0,N   3)    -33.1914         0.003306   
    115. D(H  27,N   3,Mo  0,N   4)   -107.9338         0.003141   
    116. D(H  27,N   3,Mo  0,N   2)    177.2802         0.003141   
    117. D(H  27,N   3,Mo  0,N   1)    -34.5038         0.003141   
    118. D(C  21,N   3,Mo  0,N   1)     86.2838         0.003141   
    119. D(C  21,N   3,Mo  0,N   2)    -61.9323         0.003141   
    120. D(H  27,N   3,Mo  0,N   5)     71.1715         0.003141   
    121. D(C  21,N   3,Mo  0,N   5)   -168.0409         0.003141   
    122. D(C  21,N   3,Mo  0,N   4)     12.8537         0.003141   
    123. D(C  18,N   4,Mo  0,N   2)     14.1633         0.001926   
    124. D(C  12,N   4,Mo  0,N   2)   -106.1223         0.001926   
    125. D(C  18,N   4,Mo  0,N   3)   -105.7204         0.001926   
    126. D(C  18,N   4,Mo  0,N   1)    134.6865         0.001926   
    127. D(C  24,N   4,Mo  0,N   1)   -106.2563         0.001926   
    128. D(C  12,N   4,Mo  0,N   1)     14.4009         0.001926   
    129. D(C  12,N   4,Mo  0,N   3)    133.9940         0.001926   
    130. D(C  24,N   4,Mo  0,N   2)    133.2206         0.001926   
    131. D(C  24,N   4,Mo  0,N   3)     13.3369         0.001926   
    132. D(H   7,N   5,Mo  0,N   1)    161.1129         0.002055   
    133. D(H   6,N   5,Mo  0,N   1)    -78.9785         0.002055   
    134. D(H   6,N   5,Mo  0,N   2)     41.3417         0.002055   
    135. D(H   6,N   5,Mo  0,N   3)    161.5436         0.002055   
    136. D(H   7,N   5,N   4,C  12)    175.4319         0.001500   
    137. D(H   7,N   5,Mo  0,N   2)    -78.5669         0.002055   
    138. D(H   8,N   5,Mo  0,N   1)     40.9589         0.002055   
    139. D(H   8,N   5,Mo  0,N   2)    161.2791         0.002055   
    140. D(H   8,N   5,Mo  0,N   3)    -78.5189         0.002055   
    141. D(H   6,N   5,N   4,C  12)    -64.4365         0.001500   
    142. D(H   6,N   5,N   4,C  18)     55.7250         0.001500   
    143. D(H   7,N   5,Mo  0,N   3)     41.6351         0.002055   
    144. D(H   7,N   5,N   4,C  18)    -64.4066         0.001500   
    145. D(H   6,N   5,N   4,C  24)    175.0819         0.001500   
    146. D(H   8,N   5,N   4,C  12)     55.1593         0.001500   
    147. D(H   8,N   5,N   4,C  18)    175.3208         0.001500   
    148. D(H   8,N   5,N   4,C  24)    -65.3223         0.001500   
    149. D(H   7,N   5,N   4,C  24)     54.9503         0.001500   
    150. D(H  10,C   9,N   1,Mo  0)   -158.6189         0.015810   
    151. D(H  10,C   9,N   1,H  28)    -37.6397         0.015810   
    152. D(H  11,C   9,N   1,Mo  0)     81.2272         0.015810   
    153. D(H  11,C   9,N   1,H  28)   -157.7936         0.015810   
    154. D(C  12,C   9,N   1,Mo  0)    -38.7017         0.015810   
    155. D(C  12,C   9,N   1,H  28)     82.2775         0.015810   
    156. D(H  13,C  12,N   4,C  24)    -41.4389         0.015980   
    157. D(C   9,C  12,N   4,Mo  0)    -38.6810         0.015980   
    158. D(H  13,C  12,N   4,C  18)     83.7769         0.015980   
    159. D(H  13,C  12,N   4,Mo  0)   -159.1726         0.015980   
    160. D(C   9,C  12,N   4,C  18)   -155.7315         0.015980   
    161. D(C   9,C  12,N   4,C  24)     79.0527         0.015980   
    162. D(H  14,C  12,C   9,H  11)    169.7003         0.011283   
    163. D(H  14,C  12,N   4,C  18)    -35.1547         0.015980   
    164. D(H  14,C  12,N   4,C  24)   -160.3705         0.015980   
    165. D(N   4,C  12,C   9,N   1)     50.2018         0.011283   
    166. D(N   4,C  12,C   9,H  10)    170.0797         0.011283   
    167. D(N   4,C  12,C   9,H  11)    -69.7359         0.011283   
    168. D(H  13,C  12,C   9,N   1)    170.6361         0.011283   
    169. D(H  13,C  12,C   9,H  10)    -69.4860         0.011283   
    170. D(H  13,C  12,C   9,H  11)     50.6983         0.011283   
    171. D(H  14,C  12,C   9,N   1)    -70.3620         0.011283   
    172. D(H  14,C  12,N   4,Mo  0)     81.8958         0.015980   
    173. D(H  14,C  12,C   9,H  10)     49.5160         0.011283   
    174. D(H  16,C  15,N   2,Mo  0)     82.6584         0.011638   
    175. D(H  16,C  15,N   2,H  29)   -156.5607         0.011638   
    176. D(H  17,C  15,N   2,Mo  0)   -157.6475         0.011638   
    177. D(H  17,C  15,N   2,H  29)    -36.8666         0.011638   
    178. D(C  18,C  15,N   2,Mo  0)    -37.5459         0.011638   
    179. D(C  18,C  15,N   2,H  29)     83.2350         0.011638   
    180. D(C  15,C  18,N   4,Mo  0)    -38.4245         0.012957   
    181. D(C  15,C  18,N   4,C  12)     79.0548         0.012957   
    182. D(C  15,C  18,N   4,C  24)   -155.1612         0.012957   
    183. D(H  19,C  18,N   4,Mo  0)   -158.9403         0.012957   
    184. D(H  19,C  18,C  15,H  16)     49.8814         0.013684   
    185. D(H  19,C  18,N   4,C  24)     84.3230         0.012957   
    186. D(H  20,C  18,N   4,Mo  0)     82.2952         0.012957   
    187. D(H  20,C  18,N   4,C  12)   -160.2254         0.012957   
    188. D(H  20,C  18,N   4,C  24)    -34.4415         0.012957   
    189. D(N   4,C  18,C  15,N   2)     49.5590         0.013684   
    190. D(N   4,C  18,C  15,H  16)    -70.5745         0.013684   
    191. D(N   4,C  18,C  15,H  17)    169.6352         0.013684   
    192. D(H  19,C  18,N   4,C  12)    -41.4610         0.012957   
    193. D(H  19,C  18,C  15,N   2)    170.0148         0.013684   
    194. D(H  19,C  18,C  15,H  17)    -69.9090         0.013684   
    195. D(H  20,C  18,C  15,N   2)    -71.1350         0.013684   
    196. D(H  20,C  18,C  15,H  16)    168.7316         0.013684   
    197. D(H  20,C  18,C  15,H  17)     48.9413         0.013684   
    198. D(H  22,C  21,N   3,Mo  0)   -156.8080         0.013578   
    199. D(H  22,C  21,N   3,H  27)    -36.0205         0.013578   
    200. D(H  23,C  21,N   3,Mo  0)     83.8609         0.013578   
    201. D(H  23,C  21,N   3,H  27)   -155.3516         0.013578   
    202. D(C  24,C  21,N   3,Mo  0)    -36.4470         0.013578   
    203. D(C  24,C  21,N   3,H  27)     84.3405         0.013578   
    204. D(H  26,C  24,C  21,H  23)    166.6356         0.012331   
    205. D(C  21,C  24,N   4,C  12)   -154.1523         0.013576   
    206. D(C  21,C  24,N   4,C  18)     80.1021         0.013576   
    207. D(H  25,C  24,C  21,H  22)    -71.2002         0.012331   
    208. D(H  25,C  24,N   4,C  12)     85.0977         0.013576   
    209. D(H  25,C  24,N   4,C  18)    -40.6479         0.013576   
    210. D(H  26,C  24,N   4,Mo  0)     84.3761         0.013576   
    211. D(H  26,C  24,N   4,C  12)    -33.4675         0.013576   
    212. D(H  26,C  24,N   4,C  18)   -159.2131         0.013576   
    213. D(N   4,C  24,C  21,N   3)     47.6950         0.012331   
    214. D(N   4,C  24,C  21,H  22)    168.0677         0.012331   
    215. D(N   4,C  24,C  21,H  23)    -72.6934         0.012331   
    216. D(H  25,C  24,N   4,Mo  0)   -157.0587         0.013576   
    217. D(H  25,C  24,C  21,N   3)    168.4271         0.012331   
    218. D(H  25,C  24,C  21,H  23)     48.0387         0.012331   
    219. D(H  26,C  24,C  21,N   3)    -72.9760         0.012331   
    220. D(C  21,C  24,N   4,Mo  0)    -36.3087         0.013576   
    221. D(H  26,C  24,C  21,H  22)     47.3967         0.012331   
    222. C_0(N   1)                      5.4711         1.000000 C 
    223. C_1(N   1)                     15.1973         1.000000 C 
    224. C_2(N   1)                     14.4332         1.000000 C 
    225. C_1(N   2)                     14.5192         1.000000 C 
    226. C_0(N   2)                      8.7465         1.000000 C 
    227. C_2(N   2)                     13.7040         1.000000 C 
    228. C_2(N   3)                     13.2954         1.000000 C 
    229. C_1(N   3)                     17.6908         1.000000 C 
    230. C_0(N   3)                      7.5139         1.000000 C 
    231. C_0(N   4)                      7.6952         1.000000 C 
    232. C_2(N   4)                     15.5872         1.000000 C 
    233. C_1(N   4)                     16.1989         1.000000 C 
    234. C_2(N   5)                     11.4626         1.000000 C 
    235. C_1(N   5)                     15.2318         1.000000 C 
    236. C_0(N   5)                      6.6039         1.000000 C 
    -----------------------------------------------------------------

Number of atoms                         .... 30
Number of degrees of freedom            .... 236

         *************************************************************
         *                GEOMETRY OPTIMIZATION CYCLE   1            *
         *************************************************************
---------------------------------
CARTESIAN COORDINATES (ANGSTROEM)
---------------------------------
  Mo     7.162955   15.720966   13.500604
  N      5.471131   15.197321   14.433170
  N      8.746513   14.519192   13.704041
  N      7.513929   17.690751   13.295368
  N      7.695166   16.198866   15.587176
  N      6.603922   15.231830   11.462641
  H      6.677794   14.333007   11.334819
  H      7.155720   15.665190   10.882938
  H      5.743407   15.488636   11.313215
  C      5.320152   15.667197   15.808615
  H      4.663512   15.107439   16.294702
  H      5.006371   16.604139   15.821218
  C      6.699741   15.557251   16.456731
  H      6.692010   16.002249   17.342489
  H      6.933700   14.605864   16.589955
  C      9.222218   14.337020   15.119093
  H      8.681468   13.642840   15.574574
  H     10.170355   14.052125   15.126294
  C      9.072101   15.655961   15.819417
  H      9.222635   15.536787   16.791590
  H      9.745336   16.295169   15.477356
  C      8.193896   18.325544   14.449373
  H      8.007028   19.296593   14.460175
  H      9.174202   18.197141   14.379161
  C      7.678622   17.684331   15.722200
  H      8.246693   17.956385   16.487336
  H      6.754098   17.992498   15.900432
  H      6.618672   18.159718   13.157582
  H      5.425297   14.178428   14.445662
  H      9.514463   14.911202   13.159081

----------------------------
CARTESIAN COORDINATES (A.U.)
----------------------------
  NO LB      ZA    FRAG     MASS         X           Y           Z
   0 Mo   14.0000*   0    95.940   13.536023   29.708319   25.512445
   1 N     7.0000    0    14.007   10.338940   28.718775   27.274739
   2 N     7.0000    0    14.007   16.528514   27.437296   25.896884
   3 N     7.0000    0    14.007   14.199268   33.430674   25.124604
   4 N     7.0000    0    14.007   14.541757   30.611421   29.455494
   5 N     7.0000    0    14.007   12.479604   28.783986   21.661253
   6 H     1.0000    0     1.008   12.619202   27.085458   21.419703
   7 H     1.0000    0     1.008   13.522351   29.602920   20.565773
   8 H     1.0000    0     1.008   10.853466   29.269280   21.378878
   9 C     6.0000    0    12.011   10.053631   29.606711   29.873954
  10 H     1.0000    0     1.008    8.812760   28.548922   30.792524
  11 H     1.0000    0     1.008    9.460669   31.377275   29.897768
  12 C     6.0000    0    12.011   12.660675   29.398945   31.098714
  13 H     1.0000    0     1.008   12.646067   30.239868   32.772554
  14 H     1.0000    0     1.008   13.102794   27.601083   31.350471
  15 C     6.0000    0    12.011   17.427467   27.093041   28.570944
  16 H     1.0000    0     1.008   16.405597   25.781231   29.431679
  17 H     1.0000    0     1.008   19.219185   26.554668   28.584553
  18 C     6.0000    0    12.011   17.143787   29.585479   29.894366
  19 H     1.0000    0     1.008   17.428254   29.360273   31.731507
  20 H     1.0000    0     1.008   18.416016   30.793406   29.247965
  21 C     6.0000    0    12.011   15.484219   34.630260   27.305358
  22 H     1.0000    0     1.008   15.131089   36.465277   27.325771
  23 H     1.0000    0     1.008   17.336730   34.387613   27.172676
  24 C     6.0000    0    12.011   14.510493   33.418542   29.710652
  25 H     1.0000    0     1.008   15.583991   33.932650   31.156550
  26 H     1.0000    0     1.008   12.763396   34.000894   30.047461
  27 H     1.0000    0     1.008   12.507477   34.316894   24.864227
  28 H     1.0000    0     1.008   10.252325   26.793346   27.298344
  29 H     1.0000    0     1.008   17.979729   28.178089   24.867059
* core charge reduced due to ECP

--------------------------------
INTERNAL COORDINATES (ANGSTROEM)
--------------------------------
 Mo     0   0   0     0.000000000000     0.00000000     0.00000000
 N      1   0   0     2.001536842533     0.00000000     0.00000000
 N      1   2   0     1.998324790244   117.71363207     0.00000000
 N      1   2   3     2.011307800321   116.82469937   211.86720999
 N      1   2   3     2.205769451440    79.62336311   286.06469722
 N      1   2   3     2.169116094728    99.25992837   105.88145937
 H      6   1   2     0.910866294391   109.47909684   281.02145982
 H      6   1   2     0.910130816475   109.56077970   161.11286280
 H      6   1   2     0.910364909133   109.52477400    40.95893250
 C      2   1   3     1.461309839733   116.21594796    88.12296519
 H     10   2   1     0.990346224647   110.41070774   201.38114055
 H     10   2   1     0.988169174349   110.46812042    81.22724611
 C      5   1   2     1.469240150973   107.56405769    14.40086623
 H     13   5   1     0.991286626715   109.75996953   200.82742240
 H     13   5   1     0.988748435590   109.85422168    81.89584816
 C      3   1   2     1.503946371999   114.78949443   299.65901974
 H     16   3   1     0.990837843389   110.16721304    82.65838229
 H     16   3   1     0.990039855765   110.15843569   202.35245538
 C      5   1   2     1.498209421778   106.85052117   134.68645386
 H     19   5   1     0.990950790311   109.58874654   201.05969767
 H     19   5   1     0.989361806303   109.73551040    82.29524035
 C      4   1   2     1.482243734462   114.83646997    86.28376796
 H     22   4   1     0.988925198791   110.01971242   203.19199249
 H     22   4   1     0.991169704376   110.06476325    83.86088800
 C      5   1   2     1.491680272605   107.37996760   253.74373759
 H     25   5   1     0.991035480841   109.68806187   202.94132219
 H     25   5   1     0.990695744506   109.65772033    84.37614984
 H      4   1   2     1.020000000030   108.11375694   325.49622423
 H      2   1   3     1.019999999968   107.75971587   327.14380722
 H      3   1   2     1.019999999989   108.12577814   178.87807902

---------------------------
INTERNAL COORDINATES (A.U.)
---------------------------
 Mo     0   0   0     0.000000000000     0.00000000     0.00000000
 N      1   0   0     3.782356479340     0.00000000     0.00000000
 N      1   2   0     3.776286580186   117.71363207     0.00000000
 N      1   2   3     3.800820913627   116.82469937   211.86720999
 N      1   2   3     4.168300177792    79.62336311   286.06469722
 N      1   2   3     4.099035371717    99.25992837   105.88145937
 H      6   1   2     1.721287841019   109.47909684   281.02145982
 H      6   1   2     1.719897989181   109.56077970   161.11286280
 H      6   1   2     1.720340360193   109.52477400    40.95893250
 C      2   1   3     2.761475393900   116.21594796    88.12296519
 H     10   2   1     1.871483142345   110.41070774   201.38114055
 H     10   2   1     1.867369113503   110.46812042    81.22724611
 C      5   1   2     2.776461510301   107.56405769    14.40086623
 H     13   5   1     1.873260244710   109.75996953   200.82742240
 H     13   5   1     1.868463758609   109.85422168    81.89584816
 C      3   1   2     2.842046763182   114.78949443   299.65901974
 H     16   3   1     1.872412167130   110.16721304    82.65838229
 H     16   3   1     1.870904189063   110.15843569   202.35245538
 C      5   1   2     2.831205498420   106.85052117   134.68645386
 H     19   5   1     1.872625605881   109.58874654   201.05969767
 H     19   5   1     1.869622861274   109.73551040    82.29524035
 C      4   1   2     2.801034721853   114.83646997    86.28376796
 H     22   4   1     1.868797792649   110.01971242   203.19199249
 H     22   4   1     1.873039293510   110.06476325    83.86088800
 C      5   1   2     2.818867194597   107.37996760   253.74373759
 H     25   5   1     1.872785647788   109.68806187   202.94132219
 H     25   5   1     1.872143639157   109.65772033    84.37614984
 H      4   1   2     1.927520656656   108.11375694   325.49622423
 H      2   1   3     1.927520656539   107.75971587   327.14380722
 H      3   1   2     1.927520656579   108.12577814   178.87807902

---------------------
BASIS SET INFORMATION
---------------------
There are 4 groups of distinct atoms

 Group   1 Type Mo  : 8s6p4d contracted to 3s3p2d pattern {341/321/31}
 Group   2 Type N   : 10s4p1d contracted to 3s2p1d pattern {631/31/1}
 Group   3 Type H   : 4s contracted to 2s pattern {31}
 Group   4 Type C   : 10s5p contracted to 3s2p pattern {721/41}

Atom   0Mo   basis set group =>   1
Atom   1N    basis set group =>   2
Atom   2N    basis set group =>   2
Atom   3N    basis set group =>   2
Atom   4N    basis set group =>   2
Atom   5N    basis set group =>   2
Atom   6H    basis set group =>   3
Atom   7H    basis set group =>   3
Atom   8H    basis set group =>   3
Atom   9C    basis set group =>   4
Atom  10H    basis set group =>   3
Atom  11H    basis set group =>   3
Atom  12C    basis set group =>   4
Atom  13H    basis set group =>   3
Atom  14H    basis set group =>   3
Atom  15C    basis set group =>   4
Atom  16H    basis set group =>   3
Atom  17H    basis set group =>   3
Atom  18C    basis set group =>   4
Atom  19H    basis set group =>   3
Atom  20H    basis set group =>   3
Atom  21C    basis set group =>   4
Atom  22H    basis set group =>   3
Atom  23H    basis set group =>   3
Atom  24C    basis set group =>   4
Atom  25H    basis set group =>   3
Atom  26H    basis set group =>   3
Atom  27H    basis set group =>   3
Atom  28H    basis set group =>   3
Atom  29H    basis set group =>   3
---------------------------------
AUXILIARY/J BASIS SET INFORMATION
---------------------------------
There are 4 groups of distinct atoms

 Group   1 Type Mo  : 10s10p10d8f6g contracted to 10s10p10d8f6g pattern {1111111111/1111111111/1111111111/11111111/111111}
 Group   2 Type N   : 14s11p10d2f contracted to 14s11p10d2f pattern {11111111111111/11111111111/1111111111/11}
 Group   3 Type H   : 9s2p contracted to 9s2p pattern {111111111/11}
 Group   4 Type C   : 14s11p7d contracted to 14s11p7d pattern {11111111111111/11111111111/1111111}

Atom   0Mo   basis set group =>   1
Atom   1N    basis set group =>   2
Atom   2N    basis set group =>   2
Atom   3N    basis set group =>   2
Atom   4N    basis set group =>   2
Atom   5N    basis set group =>   2
Atom   6H    basis set group =>   3
Atom   7H    basis set group =>   3
Atom   8H    basis set group =>   3
Atom   9C    basis set group =>   4
Atom  10H    basis set group =>   3
Atom  11H    basis set group =>   3
Atom  12C    basis set group =>   4
Atom  13H    basis set group =>   3
Atom  14H    basis set group =>   3
Atom  15C    basis set group =>   4
Atom  16H    basis set group =>   3
Atom  17H    basis set group =>   3
Atom  18C    basis set group =>   4
Atom  19H    basis set group =>   3
Atom  20H    basis set group =>   3
Atom  21C    basis set group =>   4
Atom  22H    basis set group =>   3
Atom  23H    basis set group =>   3
Atom  24C    basis set group =>   4
Atom  25H    basis set group =>   3
Atom  26H    basis set group =>   3
Atom  27H    basis set group =>   3
Atom  28H    basis set group =>   3
Atom  29H    basis set group =>   3
---------------------------------
AUXILIARY/C BASIS SET INFORMATION
---------------------------------
There are 4 groups of distinct atoms

 Group   1 Type Mo  : 10s10p10d8f6g contracted to 10s10p10d8f6g pattern {1111111111/1111111111/1111111111/11111111/111111}
 Group   2 Type N   : 14s11p10d2f contracted to 14s11p10d2f pattern {11111111111111/11111111111/1111111111/11}
 Group   3 Type H   : 9s2p contracted to 9s2p pattern {111111111/11}
 Group   4 Type C   : 14s11p7d contracted to 14s11p7d pattern {11111111111111/11111111111/1111111}

Atom   0Mo   basis set group =>   1
Atom   1N    basis set group =>   2
Atom   2N    basis set group =>   2
Atom   3N    basis set group =>   2
Atom   4N    basis set group =>   2
Atom   5N    basis set group =>   2
Atom   6H    basis set group =>   3
Atom   7H    basis set group =>   3
Atom   8H    basis set group =>   3
Atom   9C    basis set group =>   4
Atom  10H    basis set group =>   3
Atom  11H    basis set group =>   3
Atom  12C    basis set group =>   4
Atom  13H    basis set group =>   3
Atom  14H    basis set group =>   3
Atom  15C    basis set group =>   4
Atom  16H    basis set group =>   3
Atom  17H    basis set group =>   3
Atom  18C    basis set group =>   4
Atom  19H    basis set group =>   3
Atom  20H    basis set group =>   3
Atom  21C    basis set group =>   4
Atom  22H    basis set group =>   3
Atom  23H    basis set group =>   3
Atom  24C    basis set group =>   4
Atom  25H    basis set group =>   3
Atom  26H    basis set group =>   3
Atom  27H    basis set group =>   3
Atom  28H    basis set group =>   3
Atom  29H    basis set group =>   3
----------------------------------
AUXILIARY/JK BASIS SET INFORMATION
----------------------------------
There are 4 groups of distinct atoms

 Group   1 Type Mo  : 10s10p10d8f6g contracted to 10s10p10d8f6g pattern {1111111111/1111111111/1111111111/11111111/111111}
 Group   2 Type N   : 14s11p10d2f contracted to 14s11p10d2f pattern {11111111111111/11111111111/1111111111/11}
 Group   3 Type H   : 9s2p contracted to 9s2p pattern {111111111/11}
 Group   4 Type C   : 14s11p7d contracted to 14s11p7d pattern {11111111111111/11111111111/1111111}

Atom   0Mo   basis set group =>   1
Atom   1N    basis set group =>   2
Atom   2N    basis set group =>   2
Atom   3N    basis set group =>   2
Atom   4N    basis set group =>   2
Atom   5N    basis set group =>   2
Atom   6H    basis set group =>   3
Atom   7H    basis set group =>   3
Atom   8H    basis set group =>   3
Atom   9C    basis set group =>   4
Atom  10H    basis set group =>   3
Atom  11H    basis set group =>   3
Atom  12C    basis set group =>   4
Atom  13H    basis set group =>   3
Atom  14H    basis set group =>   3
Atom  15C    basis set group =>   4
Atom  16H    basis set group =>   3
Atom  17H    basis set group =>   3
Atom  18C    basis set group =>   4
Atom  19H    basis set group =>   3
Atom  20H    basis set group =>   3
Atom  21C    basis set group =>   4
Atom  22H    basis set group =>   3
Atom  23H    basis set group =>   3
Atom  24C    basis set group =>   4
Atom  25H    basis set group =>   3
Atom  26H    basis set group =>   3
Atom  27H    basis set group =>   3
Atom  28H    basis set group =>   3
Atom  29H    basis set group =>   3
-------------------------
ECP PARAMETER INFORMATION
-------------------------

 Group 1, Type Mo ECP HayWadt (replacing 28 core electrons, lmax=3)

Atom   0Mo   ECP group =>   1



           ************************************************************
           *        Program running with 8 parallel MPI-processes     *
           *              working on a common directory               *
           ************************************************************
------------------------------------------------------------------------------
                           ORCA GTO INTEGRAL CALCULATION
                           -- RI-GTO INTEGRALS CHOSEN --
------------------------------------------------------------------------------

                         BASIS SET STATISTICS AND STARTUP INFO

Gaussian basis set:
 # of primitive gaussian shells          ...  255
 # of primitive gaussian functions       ...  403
 # of contracted shells                  ...  104
 # of contracted basis functions         ...  182
 Highest angular momentum                ...    2
 Maximum contraction depth               ...    7
Auxiliary gaussian basis set:
 # of primitive gaussian shells          ...  619
 # of primitive gaussian functions       ... 1517
 # of contracted shells                  ...  619
 # of contracted aux-basis functions     ... 1517
 Highest angular momentum                ...    4
 Maximum contraction depth               ...    1
Ratio of auxiliary to basis functions    ...  8.34
Integral package used                  ... LIBINT
 One Electron integrals                  
   ECP integrals                         ... done
 Ordering auxiliary basis shells         ... done
 Integral threshhold             Thresh  ...  2.500e-11
 Primitive cut-off               TCut    ...  2.500e-12
 Pre-screening matrix                    ... done
 Shell pair data                         ... 
 Ordering of the shell pairs             ... done (   0.001 sec) 5133 of 5460 pairs
 Determination of significant pairs      ... done (   0.000 sec)
 Creation of shell pair data             ... done (   0.001 sec)
 Storage of shell pair data              ... done (   0.006 sec)
 Shell pair data done in (   0.009 sec)
 Computing two index integrals           ... done
 Cholesky decomposition of the V-matrix  ... done


Timings:
 Total evaluation time                   ...   1.477 sec (  0.025 min)
 One electron matrix time                ...   0.913 sec (  0.015 min) = 61.8%
 Schwartz matrix evaluation time         ...   0.139 sec (  0.002 min) =  9.4%
 Two index repulsion integral time       ...   0.055 sec (  0.001 min) =  3.7%
 Cholesky decomposition of V             ...   0.334 sec (  0.006 min) = 22.6%
 Three index repulsion integral time     ...   0.000 sec (  0.000 min) =  0.0%



           ************************************************************
           *        Program running with 8 parallel MPI-processes     *
           *              working on a common directory               *
           ************************************************************
-------------------------------------------------------------------------------
                                 ORCA SCF
-------------------------------------------------------------------------------

------------
SCF SETTINGS
------------
Hamiltonian:
 Density Functional     Method          .... DFT(GTOs)
 Exchange Functional    Exchange        .... B88
   X-Alpha parameter    XAlpha          ....  0.666667
   Becke's b parameter  XBeta           ....  0.004200
 Correlation Functional Correlation     .... P86
 LDA part of GGA corr.  LDAOpt          .... PW91-LDA
 Gradients option       PostSCFGGA      .... off
   Density functional embedding theory  .... OFF
 RI-approximation to the Coulomb term is turned on
   Number of auxiliary basis functions  .... 1517


General Settings:
 Integral files         IntName         .... Mo-TAEA-NH3_0_2_bp86_lanl2dz_6-31gpol.opt
 Hartree-Fock type      HFTyp           .... UHF
 Total Charge           Charge          ....    0
 Multiplicity           Mult            ....    2
 Number of Electrons    NEL             ....  103
 Basis Dimension        Dim             ....  182
 Nuclear Repulsion      ENuc            ....    951.1578473304 Eh

Convergence Acceleration:
 DIIS                   CNVDIIS         .... on
   Start iteration      DIISMaxIt       ....    12
   Startup error        DIISStart       ....  0.200000
   # of expansion vecs  DIISMaxEq       ....     5
   Bias factor          DIISBfac        ....   1.050
   Max. coefficient     DIISMaxC        ....  10.000
 Newton-Raphson         CNVNR           .... off
 SOSCF                  CNVSOSCF        .... off
 Level Shifting         CNVShift        .... on
   Level shift para.    LevelShift      ....    0.2500
   Turn off err/grad.   ShiftErr        ....    0.0010
 Zerner damping         CNVZerner       .... off
 Static damping         CNVDamp         .... on
   Fraction old density DampFac         ....    0.7000
   Max. Damping (<1)    DampMax         ....    0.9800
   Min. Damping (>=0)   DampMin         ....    0.0000
   Turn off err/grad.   DampErr         ....    0.1000
 Fernandez-Rico         CNVRico         .... off

SCF Procedure:
 Maximum # iterations   MaxIter         ....   500
 SCF integral mode      SCFMode         .... Direct
   Integral package                     .... LIBINT
 Reset frequency        DirectResetFreq ....    20
 Integral Threshold     Thresh          ....  2.500e-11 Eh
 Primitive CutOff       TCut            ....  2.500e-12 Eh

Convergence Tolerance:
 Convergence Check Mode ConvCheckMode   .... Total+1el-Energy
 Convergence forced     ConvForced      .... 0
 Energy Change          TolE            ....  1.000e-08 Eh
 1-El. energy change                    ....  1.000e-05 Eh
 DIIS Error             TolErr          ....  5.000e-07


Diagonalization of the overlap matrix:
Smallest eigenvalue                        ... 3.461e-03
Time for diagonalization                   ...    0.080 sec
Threshold for overlap eigenvalues          ... 1.000e-08
Number of eigenvalues below threshold      ... 0
Time for construction of square roots      ...    0.183 sec
Total time needed                          ...    0.264 sec

-------------------
DFT GRID GENERATION
-------------------

General Integration Accuracy     IntAcc      ...  4.340
Radial Grid Type                 RadialGrid  ... Gauss-Chebyshev
Angular Grid (max. acc.)         AngularGrid ... Lebedev-110
Angular grid pruning method      GridPruning ... 3 (G Style)
Weight generation scheme         WeightScheme... Becke
Basis function cutoff            BFCut       ...    1.0000e-11
Integration weight cutoff        WCut        ...    1.0000e-14
Grids for H and He will be reduced by one unit

# of grid points (after initial pruning)     ...  36018 (   0.0 sec)
# of grid points (after weights+screening)   ...  32042 (   0.1 sec)
nearest neighbour list constructed           ...    0.0 sec
Grid point re-assignment to atoms done       ...    0.0 sec
Grid point division into batches done        ...    0.0 sec
Reduced shell lists constructed in    0.1 sec

Total number of grid points                  ...    32042
Total number of batches                      ...      516
Average number of points per batch           ...       62
Average number of grid points per atom       ...     1068
Average number of shells per batch           ...    85.05 (81.77%)
Average number of basis functions per batch  ...   159.05 (87.39%)
Average number of large shells per batch     ...    67.26 (79.08%)
Average number of large basis fcns per batch ...   130.02 (81.75%)
Maximum spatial batch extension              ...   7.50,  5.49,  4.14 au
Average spatial batch extension              ...   0.24,  0.22,  0.22 au

Time for grid setup =    0.159 sec

------------------------------
INITIAL GUESS: MODEL POTENTIAL
------------------------------
Loading Hartree-Fock densities                     ... done
  calling /pkg/orca/orca_4_2_0_linux_x86-64_shared_openmpi314/orca Mo-TAEA-NH3_0_2_bp86_lanl2dz_6-31gpol.opt_atom42.inp > Mo-TAEA-NH3_0_2_bp86_lanl2dz_6-31gpol.opt_atom42.out in order to generate an atomic fitting density for atom 0 (Mo with ECP) on-the-fly... 
    atom 0 (Mo), assumed electronic state with S=5: 1s2 2s2 2p6 3s2 3p6 4s2 3d10 4p6 5s2 4d4           ... done
Calculating cut-offs                               ... done
Setting up the integral package                    ... done
Initializing the effective Hamiltonian             ... done
Starting the Coulomb interaction                   ... done (   0.0 sec)
Reading the grid                                   ... done
Mapping shells                                     ... done
Starting the XC term evaluation                    ... done (   0.1 sec)
  promolecular density results
     # of electrons  =    131.004444247
     EX              =   -189.273871973
     EC              =     -5.751745116
     EX+EC           =   -195.025617089
Transforming the Hamiltonian                       ... done (   0.0 sec)
Diagonalizing the Hamiltonian                      ... done (   0.0 sec)
Back transforming the eigenvectors                 ... done (   0.0 sec)
Now organizing SCF variables                       ... done
                      ------------------
                      INITIAL GUESS DONE (   2.0 sec)
                      ------------------
--------------
SCF ITERATIONS
--------------
               ***  Starting incremental Fock matrix formation  ***

                         ----------------------------
                         !        ITERATION     0   !
                         ----------------------------
   Total Energy        :    -579.917559867832 Eh
   Energy Change       :    -579.917559867832 Eh
   MAX-DP              :       0.081601380766
   RMS-DP              :       0.002379811247
   Actual Damping      :       0.7000
   Actual Level Shift  :       0.2500 Eh
   Int. Num. El.       :   103.00531546 (UP=   52.00264776 DN=   51.00266770)
   Exchange            :   -80.15998341
   Correlation         :    -3.91880678


                         ----------------------------
                         !        ITERATION     1   !
                         ----------------------------
   Total Energy        :    -580.270584682742 Eh
   Energy Change       :      -0.353024814911 Eh
   MAX-DP              :       0.040477507391
   RMS-DP              :       0.001625883336
   Actual Damping      :       0.7000
   Actual Level Shift  :       0.2500 Eh
   Int. Num. El.       :   103.00641593 (UP=   52.00318658 DN=   51.00322935)
   Exchange            :   -79.32387728
   Correlation         :    -3.90799024

                               ***Turning on DIIS***

                         ----------------------------
                         !        ITERATION     2   !
                         ----------------------------
   Total Energy        :    -580.355588545758 Eh
   Energy Change       :      -0.085003863016 Eh
   MAX-DP              :       0.101783717111
   RMS-DP              :       0.002774569658
   Actual Damping      :       0.0000
   Actual Level Shift  :       0.2500 Eh
   Int. Num. El.       :   103.00698910 (UP=   52.00346925 DN=   51.00351985)
   Exchange            :   -78.82072872
   Correlation         :    -3.90072968
   DIIS-Error          :       0.052827612653


                         ----------------------------
                         !        ITERATION     3   !
                         ----------------------------
   Total Energy        :    -580.556480364428 Eh
   Energy Change       :      -0.200891818670 Eh
   MAX-DP              :       0.024871326662
   RMS-DP              :       0.001351085105
   Actual Damping      :       0.0000
   Actual Level Shift  :       0.2500 Eh
   Int. Num. El.       :   103.00715584 (UP=   52.00357410 DN=   51.00358174)
   Exchange            :   -78.22645043
   Correlation         :    -3.88908636
   DIIS-Error          :       0.072770631078
   DIIS coefficients:
      0.58468   0.41532


                         ----------------------------
                         !        ITERATION     4   !
                         ----------------------------
   Total Energy        :    -580.579938577192 Eh
   Energy Change       :      -0.023458212764 Eh
   MAX-DP              :       0.024368279153
   RMS-DP              :       0.000592845079
   Actual Damping      :       0.0000
   Actual Level Shift  :       0.2500 Eh
   Int. Num. El.       :   103.00682099 (UP=   52.00342203 DN=   51.00339896)
   Exchange            :   -78.57630897
   Correlation         :    -3.89541429
   DIIS-Error          :       0.046072664211
   DIIS coefficients:
      0.39926   0.16648   0.43426


                         ----------------------------
                         !        ITERATION     5   !
                         ----------------------------
   Total Energy        :    -580.592294407849 Eh
   Energy Change       :      -0.012355830657 Eh
   MAX-DP              :       0.007906458255
   RMS-DP              :       0.000177943747
   Actual Damping      :       0.0000
   Actual Level Shift  :       0.2500 Eh
   Int. Num. El.       :   103.00700735 (UP=   52.00351599 DN=   51.00349137)
   Exchange            :   -78.59210886
   Correlation         :    -3.89823069
   DIIS-Error          :       0.012124839548
   DIIS coefficients:
      0.09332   0.05131  -0.14103   0.99640


                         ----------------------------
                         !        ITERATION     6   !
                         ----------------------------
   Total Energy        :    -580.593219850938 Eh
   Energy Change       :      -0.000925443088 Eh
   MAX-DP              :       0.002179770479
   RMS-DP              :       0.000078705761
   Actual Damping      :       0.0000
   Actual Level Shift  :       0.2500 Eh
   Int. Num. El.       :   103.00706389 (UP=   52.00354804 DN=   51.00351585)
   Exchange            :   -78.60139327
   Correlation         :    -3.89840791
   DIIS-Error          :       0.002844009595
   DIIS coefficients:
      0.00818   0.00733  -0.04912  -0.01414   1.04775


                         ----------------------------
                         !        ITERATION     7   !
                         ----------------------------
   Total Energy        :    -580.593307114194 Eh
   Energy Change       :      -0.000087263256 Eh
   MAX-DP              :       0.001132959442
   RMS-DP              :       0.000045680753
   Actual Damping      :       0.0000
   Actual Level Shift  :       0.2500 Eh
   Int. Num. El.       :   103.00708097 (UP=   52.00355973 DN=   51.00352124)
   Exchange            :   -78.60310709
   Correlation         :    -3.89856733
   DIIS-Error          :       0.001176264452
   DIIS coefficients:
      0.82375   0.00081  -0.01057  -0.06354   0.24956


                         ----------------------------
                         !        ITERATION     8   !
                         ----------------------------
   Total Energy        :    -580.593327381434 Eh
   Energy Change       :      -0.000020267241 Eh
   MAX-DP              :       0.017287307954
   RMS-DP              :       0.000271625046
   Actual Damping      :       0.0000
   Actual Level Shift  :       0.0000 Eh
   Int. Num. El.       :   103.00708241 (UP=   52.00356248 DN=   51.00351993)
   Exchange            :   -78.60385626
   Correlation         :    -3.89858585
   DIIS-Error          :       0.000650853612
   DIIS coefficients:
      0.36010   0.74732   0.00378  -0.02368  -0.08752


                         ----------------------------
                         !        ITERATION     9   !
                         ----------------------------
   Total Energy        :    -580.593346208547 Eh
   Energy Change       :      -0.000018827113 Eh
   MAX-DP              :       0.000271017065
   RMS-DP              :       0.000005577898
   Actual Damping      :       0.0000
   Actual Level Shift  :       0.2500 Eh
   Int. Num. El.       :   103.00706433 (UP=   52.00356574 DN=   51.00349859)
   Exchange            :   -78.60488472
   Correlation         :    -3.89861540
   DIIS-Error          :       0.001140622019
   DIIS coefficients:
      0.27234   0.67047   0.13182  -0.00961  -0.06502


                         ----------------------------
                         !        ITERATION    10   !
                         ----------------------------
   Total Energy        :    -580.593350233145 Eh
   Energy Change       :      -0.000004024598 Eh
   MAX-DP              :       0.001095910181
   RMS-DP              :       0.000020021161
   Actual Damping      :       0.0000
   Actual Level Shift  :       0.0000 Eh
   Int. Num. El.       :   103.00706336 (UP=   52.00356524 DN=   51.00349812)
   Exchange            :   -78.60475544
   Correlation         :    -3.89861232
   DIIS-Error          :       0.000987045960
   DIIS coefficients:
      0.22444   0.63885  -0.22739   0.45410  -0.09000


                         ----------------------------
                         !        ITERATION    11   !
                         ----------------------------
   Total Energy        :    -580.593355541199 Eh
   Energy Change       :      -0.000005308055 Eh
   MAX-DP              :       0.002712322304
   RMS-DP              :       0.000045437370
   Actual Damping      :       0.0000
   Actual Level Shift  :       0.0000 Eh
   Int. Num. El.       :   103.00706453 (UP=   52.00356554 DN=   51.00349899)
   Exchange            :   -78.60471357
   Correlation         :    -3.89861176
   DIIS-Error          :       0.000798686416
   DIIS coefficients:
      0.08599   0.28548  -0.41508  -0.46053   1.50413


                         ----------------------------
                         !        ITERATION    12   !
                         ----------------------------
   Total Energy        :    -580.593358990673 Eh
   Energy Change       :      -0.000003449474 Eh
   MAX-DP              :       0.000452621543
   RMS-DP              :       0.000011968507
   Actual Damping      :       0.0000
   Actual Level Shift  :       0.0000 Eh
   Int. Num. El.       :   103.00706525 (UP=   52.00356703 DN=   51.00349822)
   Exchange            :   -78.60459845
   Correlation         :    -3.89864291
   DIIS-Error          :       0.000635419705
   DIIS coefficients:
      0.42315   0.42438  -0.35975  -0.12541   0.63763


                         ----------------------------
                         !        ITERATION    13   !
                         ----------------------------
   Total Energy        :    -580.593360085607 Eh
   Energy Change       :      -0.000001094934 Eh
   MAX-DP              :       0.003945900105
   RMS-DP              :       0.000068692696
   Actual Damping      :       0.0000
   Actual Level Shift  :       0.0000 Eh
   Int. Num. El.       :   103.00706169 (UP=   52.00356550 DN=   51.00349620)
   Exchange            :   -78.60471084
   Correlation         :    -3.89859927
   DIIS-Error          :       0.000681749390
   DIIS coefficients:
      0.64476   0.69023  -0.61565  -0.42582   0.70648


                         ----------------------------
                         !        ITERATION    14   !
                         ----------------------------
   Total Energy        :    -580.593365773812 Eh
   Energy Change       :      -0.000005688205 Eh
   MAX-DP              :       0.002742771603
   RMS-DP              :       0.000039631181
   Actual Damping      :       0.0000
   Actual Level Shift  :       0.0000 Eh
   Int. Num. El.       :   103.00705664 (UP=   52.00356433 DN=   51.00349231)
   Exchange            :   -78.60474643
   Correlation         :    -3.89861902
   DIIS-Error          :       0.000594608035
   DIIS coefficients:
      0.42897   0.71010   0.53248  -0.50301  -0.16853


                         ----------------------------
                         !        ITERATION    15   !
                         ----------------------------
   Total Energy        :    -580.593368236658 Eh
   Energy Change       :      -0.000002462846 Eh
   MAX-DP              :       0.002716366985
   RMS-DP              :       0.000041199949
   Actual Damping      :       0.0000
   Actual Level Shift  :       0.0000 Eh
   Int. Num. El.       :   103.00705736 (UP=   52.00356545 DN=   51.00349191)
   Exchange            :   -78.60433206
   Correlation         :    -3.89861661
   DIIS-Error          :       0.000358174565
   DIIS coefficients:
     -0.02058   0.20995   0.35755   0.77535  -0.32227


                         ----------------------------
                         !        ITERATION    16   !
                         ----------------------------
   Total Energy        :    -580.593369210854 Eh
   Energy Change       :      -0.000000974196 Eh
   MAX-DP              :       0.001551713540
   RMS-DP              :       0.000023783450
   Actual Damping      :       0.0000
   Actual Level Shift  :       0.0000 Eh
   Int. Num. El.       :   103.00705581 (UP=   52.00356531 DN=   51.00349050)
   Exchange            :   -78.60475642
   Correlation         :    -3.89862236
   DIIS-Error          :       0.000318269962
   DIIS coefficients:
     -0.18538  -0.09835   0.13221   0.67064   0.48087


                         ----------------------------
                         !        ITERATION    17   !
                         ----------------------------
   Total Energy        :    -580.593369815601 Eh
   Energy Change       :      -0.000000604747 Eh
   MAX-DP              :       0.001161003456
   RMS-DP              :       0.000017629696
   Actual Damping      :       0.0000
   Actual Level Shift  :       0.0000 Eh
   Int. Num. El.       :   103.00705360 (UP=   52.00356445 DN=   51.00348915)
   Exchange            :   -78.60464930
   Correlation         :    -3.89862360
   DIIS-Error          :       0.000112403768
   DIIS coefficients:
      0.88383  -0.11057  -0.04103   0.01778   0.24999


                         ----------------------------
                         !        ITERATION    18   !
                         ----------------------------
   Total Energy        :    -580.593369917475 Eh
   Energy Change       :      -0.000000101874 Eh
   MAX-DP              :       0.000570011076
   RMS-DP              :       0.000008124873
   Actual Damping      :       0.0000
   Actual Level Shift  :       0.0000 Eh
   Int. Num. El.       :   103.00705197 (UP=   52.00356377 DN=   51.00348821)
   Exchange            :   -78.60439461
   Correlation         :    -3.89860763
   DIIS-Error          :       0.000134888533
   DIIS coefficients:
      0.52490   0.38474   0.00031   0.00128   0.08878


                         ----------------------------
                         !        ITERATION    19   !
                         ----------------------------
   Total Energy        :    -580.593369886573 Eh
   Energy Change       :       0.000000030901 Eh
   MAX-DP              :       0.000560606002
   RMS-DP              :       0.000007437151
   Actual Damping      :       0.0000
   Actual Level Shift  :       0.0000 Eh
   Int. Num. El.       :   103.00705391 (UP=   52.00356450 DN=   51.00348941)
   Exchange            :   -78.60453059
   Correlation         :    -3.89862792
   DIIS-Error          :       0.000160670272
   DIIS coefficients:
      0.33071   0.35757   0.29722  -0.03109   0.04559

               *** Restarting incremental Fock matrix formation ***
                                   *** Resetting DIIS ***

                         ----------------------------
                         !        ITERATION    20   !
                         ----------------------------
   Total Energy        :    -580.593370009815 Eh
   Energy Change       :      -0.000000123241 Eh
   MAX-DP              :       0.000130720879
   RMS-DP              :       0.000003632677
   Actual Damping      :       0.0000
   Actual Level Shift  :       0.0000 Eh
   Int. Num. El.       :   103.00705307 (UP=   52.00356423 DN=   51.00348884)
   Exchange            :   -78.60458350
   Correlation         :    -3.89862079
   DIIS-Error          :       0.000044738056


                         ----------------------------
                         !        ITERATION    21   !
                         ----------------------------
   Total Energy        :    -580.593369904204 Eh
   Energy Change       :       0.000000105611 Eh
   MAX-DP              :       0.000252722222
   RMS-DP              :       0.000003700237
   Actual Damping      :       0.0000
   Actual Level Shift  :       0.0000 Eh
   Int. Num. El.       :   103.00705232 (UP=   52.00356380 DN=   51.00348852)
   Exchange            :   -78.60449822
   Correlation         :    -3.89862063
   DIIS-Error          :       0.000150062756
   DIIS coefficients:
      0.75426   0.24574


                         ----------------------------
                         !        ITERATION    22   !
                         ----------------------------
   Total Energy        :    -580.593370046914 Eh
   Energy Change       :      -0.000000142710 Eh
   MAX-DP              :       0.000162433231
   RMS-DP              :       0.000002481801
   Actual Damping      :       0.0000
   Actual Level Shift  :       0.0000 Eh
   Int. Num. El.       :   103.00705259 (UP=   52.00356401 DN=   51.00348858)
   Exchange            :   -78.60454016
   Correlation         :    -3.89861952
   DIIS-Error          :       0.000015165307
   DIIS coefficients:
      0.15781   0.08066   0.76153


                         ----------------------------
                         !        ITERATION    23   !
                         ----------------------------
   Total Energy        :    -580.593370059531 Eh
   Energy Change       :      -0.000000012617 Eh
   MAX-DP              :       0.000214874198
   RMS-DP              :       0.000003122597
   Actual Damping      :       0.0000
   Actual Level Shift  :       0.0000 Eh
   Int. Num. El.       :   103.00705259 (UP=   52.00356401 DN=   51.00348858)
   Exchange            :   -78.60456835
   Correlation         :    -3.89862131
   DIIS-Error          :       0.000012494332
   DIIS coefficients:
     -0.21936  -0.03085   0.52289   0.72733


                         ----------------------------
                         !        ITERATION    24   !
                         ----------------------------
   Total Energy        :    -580.593370069434 Eh
   Energy Change       :      -0.000000009902 Eh
   MAX-DP              :       0.000159124748
   RMS-DP              :       0.000002484520
   Actual Damping      :       0.0000
   Actual Level Shift  :       0.0000 Eh
   Int. Num. El.       :   103.00705240 (UP=   52.00356395 DN=   51.00348845)
   Exchange            :   -78.60455375
   Correlation         :    -3.89862012
   DIIS-Error          :       0.000015232123
   DIIS coefficients:
     -0.21955  -0.03077   0.03939   0.55371   0.65722


                         ----------------------------
                         !        ITERATION    25   !
                         ----------------------------
   Total Energy        :    -580.593370078725 Eh
   Energy Change       :      -0.000000009291 Eh
   MAX-DP              :       0.000188922619
   RMS-DP              :       0.000002764725
   Actual Damping      :       0.0000
   Actual Level Shift  :       0.0000 Eh
   Int. Num. El.       :   103.00705227 (UP=   52.00356390 DN=   51.00348837)
   Exchange            :   -78.60454636
   Correlation         :    -3.89862063
   DIIS-Error          :       0.000012039718
   DIIS coefficients:
      0.71300   0.02500  -0.51349  -0.03540   0.81090


                         ----------------------------
                         !        ITERATION    26   !
                         ----------------------------
   Total Energy        :    -580.593370085016 Eh
   Energy Change       :      -0.000000006291 Eh
   MAX-DP              :       0.000101239869
   RMS-DP              :       0.000001592732
   Actual Damping      :       0.0000
   Actual Level Shift  :       0.0000 Eh
   Int. Num. El.       :   103.00705212 (UP=   52.00356385 DN=   51.00348827)
   Exchange            :   -78.60455273
   Correlation         :    -3.89862022
   DIIS-Error          :       0.000005505146
   DIIS coefficients:
      0.49821   0.60841  -0.34753  -0.12381   0.36472


                         ----------------------------
                         !        ITERATION    27   !
                         ----------------------------
   Total Energy        :    -580.593370090163 Eh
   Energy Change       :      -0.000000005147 Eh
   MAX-DP              :       0.000053738295
   RMS-DP              :       0.000000878678
   Actual Damping      :       0.0000
   Actual Level Shift  :       0.0000 Eh
   Int. Num. El.       :   103.00705211 (UP=   52.00356385 DN=   51.00348826)
   Exchange            :   -78.60455097
   Correlation         :    -3.89862092
   DIIS-Error          :       0.000009671835
   DIIS coefficients:
      0.15029   0.47483   0.37248  -0.02972   0.03212


                         ----------------------------
                         !        ITERATION    28   !
                         ----------------------------
   Total Energy        :    -580.593370085779 Eh
   Energy Change       :       0.000000004384 Eh
   MAX-DP              :       0.000048905447
   RMS-DP              :       0.000000751569
   Actual Damping      :       0.0000
   Actual Level Shift  :       0.0000 Eh
   Int. Num. El.       :   103.00705213 (UP=   52.00356386 DN=   51.00348827)
   Exchange            :   -78.60455484
   Correlation         :    -3.89862068
   DIIS-Error          :       0.000004157152
   DIIS coefficients:
     -0.01264   0.28817   0.32021   0.47929  -0.07502


                         ----------------------------
                         !        ITERATION    29   !
                         ----------------------------
   Total Energy        :    -580.593370090228 Eh
   Energy Change       :      -0.000000004449 Eh
   MAX-DP              :       0.000001813218
   RMS-DP              :       0.000000043963
   Actual Damping      :       0.0000
   Actual Level Shift  :       0.0000 Eh
   Int. Num. El.       :   103.00705208 (UP=   52.00356384 DN=   51.00348824)
   Exchange            :   -78.60455132
   Correlation         :    -3.89862052
   DIIS-Error          :       0.000001106861
   DIIS coefficients:
     -0.01317   0.09881   0.15893   0.14607   0.60936


                         ----------------------------
                         !        ITERATION    30   !
                         ----------------------------
   Total Energy        :    -580.593370093569 Eh
   Energy Change       :      -0.000000003341 Eh
   MAX-DP              :       0.000006316009
   RMS-DP              :       0.000000091314
   Actual Damping      :       0.0000
   Actual Level Shift  :       0.0000 Eh
   Int. Num. El.       :   103.00705209 (UP=   52.00356384 DN=   51.00348824)
   Exchange            :   -78.60455309
   Correlation         :    -3.89862070
   DIIS-Error          :       0.000002339588
   DIIS coefficients:
      0.31783   0.04288   0.08450   0.03971   0.51508

                 **** Energy Check signals convergence ****

               *****************************************************
               *                     SUCCESS                       *
               *           SCF CONVERGED AFTER  31 CYCLES          *
               *****************************************************

Setting up the final grid:

General Integration Accuracy     IntAcc      ...  4.670
Radial Grid Type                 RadialGrid  ... Gauss-Chebyshev
Angular Grid (max. acc.)         AngularGrid ... Lebedev-302
Angular grid pruning method      GridPruning ... 3 (G Style)
Weight generation scheme         WeightScheme... Becke
Basis function cutoff            BFCut       ...    1.0000e-11
Integration weight cutoff        WCut        ...    1.0000e-14
Grids for H and He will be reduced by one unit

# of grid points (after initial pruning)     ... 140022 (   0.0 sec)
# of grid points (after weights+screening)   ... 121965 (   0.2 sec)
nearest neighbour list constructed           ...    0.0 sec
Grid point re-assignment to atoms done       ...    0.0 sec
Grid point division into batches done        ...    0.5 sec
Reduced shell lists constructed in    0.7 sec

Total number of grid points                  ...   121965
Total number of batches                      ...     1921
Average number of points per batch           ...       63
Average number of grid points per atom       ...     4066
Average number of shells per batch           ...    81.76 (78.62%)
Average number of basis functions per batch  ...   153.67 (84.43%)
Average number of large shells per batch     ...    63.14 (77.22%)
Average number of large basis fcns per batch ...   122.28 (79.57%)
Maximum spatial batch extension              ...   7.18, 11.04,  8.61 au
Average spatial batch extension              ...   0.15,  0.16,  0.15 au

Final grid set up in    0.9 sec
Final integration                            ... done (   0.4 sec)
Change in XC energy                          ...     0.001523570
Integrated number of electrons               ...   102.999075401
Previous integrated no of electrons          ...   103.007052084

----------------
TOTAL SCF ENERGY
----------------

Total Energy       :         -580.59184652 Eh          -15798.70733 eV

Components:
Nuclear Repulsion  :          951.15784733 Eh           25882.32086 eV
Electronic Energy  :        -1531.74969385 Eh          -41681.02819 eV
One Electron Energy:        -2702.70312720 Eh          -73544.29101 eV
Two Electron Energy:         1170.95343335 Eh           31863.26282 eV

Virial components:
Potential Energy   :        -1115.38781213 Eh          -30351.24540 eV
Kinetic Energy     :          534.79596561 Eh           14552.53806 eV
Virial Ratio       :            2.08563244


DFT components:
N(Alpha)           :       51.999525828213 electrons
N(Beta)            :       50.999549572732 electrons
N(Total)           :      102.999075400944 electrons
E(X)               :      -78.602982278742 Eh       
E(C)               :       -3.898667795710 Eh       
E(XC)              :      -82.501650074452 Eh       
DFET-embed. en.    :        0.000000000000 Eh       

---------------
SCF CONVERGENCE
---------------

  Last Energy change         ...    1.2484e-09  Tolerance :   1.0000e-08
  Last MAX-Density change    ...    6.6672e-06  Tolerance :   1.0000e-07
  Last RMS-Density change    ...    1.0547e-07  Tolerance :   5.0000e-09
  Last DIIS Error            ...    1.1805e-06  Tolerance :   5.0000e-07

             **** THE GBW FILE WAS UPDATED (Mo-TAEA-NH3_0_2_bp86_lanl2dz_6-31gpol.opt.gbw) ****
             **** DENSITY FILE WAS UPDATED (Mo-TAEA-NH3_0_2_bp86_lanl2dz_6-31gpol.opt.scfp) ****
             **** ENERGY FILE WAS UPDATED (Mo-TAEA-NH3_0_2_bp86_lanl2dz_6-31gpol.opt.en.tmp) ****
----------------------
UHF SPIN CONTAMINATION
----------------------

Warning: in a DFT calculation there is little theoretical justification to 
         calculate <S**2> as in Hartree-Fock theory. We will do it anyways
         but you should keep in mind that the values have only limited relevance

Expectation value of <S**2>     :     0.753346
Ideal value S*(S+1) for S=0.5   :     0.750000
Deviation                       :     0.003346

             **** THE GBW FILE WAS UPDATED (Mo-TAEA-NH3_0_2_bp86_lanl2dz_6-31gpol.opt.gbw) ****
             **** DENSITY FILE WAS UPDATED (Mo-TAEA-NH3_0_2_bp86_lanl2dz_6-31gpol.opt.scfp) ****
----------------
ORBITAL ENERGIES
----------------
                 SPIN UP ORBITALS
  NO   OCC          E(Eh)            E(eV) 
   0   1.0000     -14.030693      -381.7946 
   1   1.0000     -14.009105      -381.2071 
   2   1.0000     -13.951828      -379.6485 
   3   1.0000     -13.949617      -379.5884 
   4   1.0000     -13.946343      -379.4993 
   5   1.0000      -9.903073      -269.4763 
   6   1.0000      -9.901168      -269.4245 
   7   1.0000      -9.899493      -269.3789 
   8   1.0000      -9.893676      -269.2206 
   9   1.0000      -9.885125      -268.9879 
  10   1.0000      -9.884595      -268.9735 
  11   1.0000      -2.252271       -61.2874 
  12   1.0000      -1.341615       -36.5072 
  13   1.0000      -1.311038       -35.6752 
  14   1.0000      -1.305333       -35.5199 
  15   1.0000      -0.863334       -23.4925 
  16   1.0000      -0.853212       -23.2171 
  17   1.0000      -0.763189       -20.7674 
  18   1.0000      -0.753184       -20.4952 
  19   1.0000      -0.736205       -20.0332 
  20   1.0000      -0.656292       -17.8586 
  21   1.0000      -0.653469       -17.7818 
  22   1.0000      -0.604958       -16.4618 
  23   1.0000      -0.557200       -15.1622 
  24   1.0000      -0.552589       -15.0367 
  25   1.0000      -0.522078       -14.2065 
  26   1.0000      -0.491863       -13.3843 
  27   1.0000      -0.489678       -13.3248 
  28   1.0000      -0.451185       -12.2774 
  29   1.0000      -0.448429       -12.2024 
  30   1.0000      -0.425920       -11.5899 
  31   1.0000      -0.401673       -10.9301 
  32   1.0000      -0.399492       -10.8707 
  33   1.0000      -0.395725       -10.7682 
  34   1.0000      -0.367050        -9.9879 
  35   1.0000      -0.364161        -9.9093 
  36   1.0000      -0.344216        -9.3666 
  37   1.0000      -0.329285        -8.9603 
  38   1.0000      -0.325921        -8.8688 
  39   1.0000      -0.321365        -8.7448 
  40   1.0000      -0.310507        -8.4493 
  41   1.0000      -0.300369        -8.1735 
  42   1.0000      -0.298932        -8.1344 
  43   1.0000      -0.257368        -7.0033 
  44   1.0000      -0.245978        -6.6934 
  45   1.0000      -0.242866        -6.6087 
  46   1.0000      -0.212393        -5.7795 
  47   1.0000      -0.170754        -4.6465 
  48   1.0000      -0.164737        -4.4827 
  49   1.0000      -0.145964        -3.9719 
  50   1.0000      -0.075322        -2.0496 
  51   1.0000      -0.045949        -1.2503 
  52   0.0000      -0.001773        -0.0482 
  53   0.0000       0.017244         0.4692 
  54   0.0000       0.017999         0.4898 
  55   0.0000       0.025829         0.7028 
  56   0.0000       0.026232         0.7138 
  57   0.0000       0.056554         1.5389 
  58   0.0000       0.087334         2.3765 
  59   0.0000       0.105430         2.8689 
  60   0.0000       0.119661         3.2561 
  61   0.0000       0.120380         3.2757 
  62   0.0000       0.122705         3.3390 
[...]
 3 N  dxz             0.0       0.2       0.2       0.1       0.0       0.0
 3 N  dyz             0.2       0.1       0.0       0.1       0.4       0.1
 3 N  dx2y2           0.9       0.1       0.3       0.1       0.2       0.0
 3 N  dxy             0.0       0.7       2.1       0.0       0.6       0.5
 4 N  s               0.1       1.0       0.3       0.1       0.1       0.4
 4 N  pz              0.2       0.2       0.0       0.1       0.4       4.0
 4 N  px              0.7       1.7       0.9       1.7       0.1       0.2
 4 N  py              0.3       0.1       0.2       0.5       0.3       0.9
 4 N  dz2             0.0       0.2       0.0       0.0       0.1       0.9
 4 N  dxz             0.0       0.1       0.1       0.5       0.3       0.2
 4 N  dyz             0.4       0.6       0.0       0.0       0.1       0.3
 4 N  dx2y2           0.0       0.2       0.2       0.3       0.1       0.0
 4 N  dxy             0.2       0.2       0.0       0.0       0.0       1.2
 5 N  s               4.8       0.1       0.3       0.1       0.0       0.6
 5 N  pz              0.4       0.4       0.3       0.6       0.0       0.1
 5 N  px              2.7       1.6       3.7       3.4       0.3       1.9
 5 N  py              0.3       0.0       0.5       0.6       0.7       0.2
 5 N  dz2             3.3       0.0       0.8       0.0       0.8       0.2
 5 N  dxz             0.1       0.2       0.0       0.4       0.0       0.3
 5 N  dyz             0.2       0.5       0.8       1.3       0.1       3.2
 5 N  dx2y2           0.3       0.8       0.1       0.2       0.1       0.0
 5 N  dxy             0.1       0.0       0.0       0.3       0.0       1.4
 6 H  s               2.4       0.0       2.2      11.3       5.0       3.8
 7 H  s               0.2       1.9       1.8       9.5       2.0       1.1
 8 H  s              10.7       3.5      10.1       0.3       0.7       0.3
 9 C  s               0.5       0.1       2.2       0.3       0.3       1.1
 9 C  pz              1.9       0.2       0.6       0.2       1.3       1.6
 9 C  px              2.3       1.7       3.9       0.0       0.9       2.3
 9 C  py              6.0       0.2       1.3       0.1       0.9       2.0
10 H  s               1.2       1.8       1.1       0.4       1.8       1.1
11 H  s              11.6       0.5      18.2       0.1       3.0       3.4
12 C  s               1.6       1.3       1.7       0.6       0.1       0.7
12 C  pz              0.4       1.6       0.4       0.2       1.9       1.5
12 C  px              3.5       5.1       3.5       0.2       0.1      10.3
12 C  py              0.1       0.1       0.4       0.7       0.0       1.7
13 H  s               2.0       9.0       0.3       0.5       0.2       4.9
14 H  s               1.3       2.9       1.7       1.1       0.7       0.1
15 C  s               0.4       0.3       0.1       4.4       2.7       0.0
15 C  pz              0.2       0.7       0.0       0.3       1.7       0.7
15 C  px              0.5       1.0       0.0       0.1       5.0       0.1
15 C  py              0.0       0.6       0.2       2.1       0.1       0.3
16 H  s               1.9       2.6       0.9       3.4       3.8       0.3
17 H  s               0.3       0.3       0.7       2.3       2.2       0.2
18 C  s               0.1       0.1       0.2       3.4       4.7       5.4
18 C  pz              0.4       0.1       1.5       1.7       0.9       1.9
18 C  px              0.8       2.7       2.1       0.6       1.9       4.4
18 C  py              4.8       1.6       0.3       2.3      12.4       3.0
19 H  s               0.3       5.1       0.9       1.3       1.2       0.3
20 H  s               0.9       1.3       0.0       1.7       3.3       0.5
21 C  s               0.6       4.1       1.9       0.5       7.0       0.3
21 C  pz              0.0       0.2       1.3       2.9       0.7       3.4
21 C  px              2.1       0.6       0.8       9.4       0.6       2.8
21 C  py              0.0       1.4       1.0       0.4       2.5       2.0
22 H  s               0.1       0.0       5.2       5.3       3.3       0.1
23 H  s               0.6       0.2       0.5       1.2       0.1       0.1
24 C  s               0.6       1.6       0.9       2.2       0.5       1.2
24 C  pz              0.4       1.4       0.3       0.8       0.1       0.8
24 C  px              1.2       2.2       3.2       0.4       1.1       0.8
24 C  py              0.9       5.5       1.8       0.4       0.4       1.3
25 H  s               0.3       3.0       0.2       0.1       0.0       0.2
26 H  s               0.1       0.8       1.4       0.9       4.9       0.2
27 H  s               0.6       0.2       0.7       1.6       0.1       0.0
28 H  s               1.6       0.5       1.7       5.1       0.2       5.6
29 H  s               0.3       0.5       0.0       0.4       0.0       0.0

                    180       181   
                   2.35646  10.02769
                   -0.00000   -0.00000
                  --------  --------
 0 Mo s               0.0       1.2
 0 Mo pz              0.5       0.8
 0 Mo px              0.5       1.0
 0 Mo py              0.1       0.2
 0 Mo dz2             0.1       0.1
 0 Mo dxz             0.1       0.0
 0 Mo dyz             0.2       0.0
 0 Mo dx2y2           0.1       0.2
 0 Mo dxy             0.1       0.3
 1 N  s               0.0       0.6
 1 N  pz              2.0       0.1
 1 N  px              1.2       1.7
 1 N  py              0.2       0.1
 1 N  dz2             0.1       0.0
 1 N  dxz             0.1       0.1
 1 N  dx2y2           0.4       0.4
 1 N  dxy             0.1       0.0
 2 N  s               0.6       0.2
 2 N  pz              0.1       0.5
 2 N  py              0.2       0.0
 2 N  dz2             0.0       0.1
 2 N  dxz             0.4       0.0
 2 N  dx2y2           0.4       0.1
 2 N  dxy             0.1       0.1
 3 N  s               0.9       0.3
 3 N  pz              0.0       0.6
 3 N  px              0.1       0.0
 3 N  py              1.5       0.1
 3 N  dz2             0.0       0.6
 3 N  dyz             0.4       0.0
 3 N  dxy             0.6       0.8
 4 N  s               0.1       0.9
 4 N  pz              2.9       0.1
 4 N  px              1.3       0.1
 4 N  py              2.0       0.1
 4 N  dz2             0.6       0.3
 4 N  dxz             0.8       0.0
 4 N  dyz             0.4       0.1
 4 N  dx2y2           0.0       0.3
 4 N  dxy             0.2       0.7
 5 N  s               0.1       0.2
 5 N  px              0.9       1.1
 5 N  py              0.6       0.4
 5 N  dz2             0.0       0.3
 5 N  dxz             0.0       0.3
 5 N  dyz             0.2       0.1
 5 N  dx2y2           0.2       0.0
 5 N  dxy             0.1       0.2
 6 H  s               0.5       3.8
 7 H  s               0.1       0.7
 8 H  s               1.9       2.9
 9 C  s               2.5       2.2
 9 C  pz              1.5       0.1
 9 C  px              4.0       4.0
 9 C  py              0.1       0.2
10 H  s               0.5       0.9
11 H  s               0.4       0.1
12 C  s               0.3       1.4
12 C  pz              2.2       5.9
12 C  px             30.7       1.0
12 C  py              3.5       0.2
13 H  s               1.5      14.6
14 H  s               2.3       3.4
15 C  s               0.2       0.3
15 C  pz              0.4       0.9
15 C  px              0.6       0.0
15 C  py              0.4       0.3
16 H  s               1.7       1.1
17 H  s               0.7       0.3
18 C  s               0.4       1.3
18 C  pz              2.4       0.0
18 C  px              0.4       0.1
18 C  py              1.5       3.9
19 H  s               0.5       4.0
20 H  s               1.0       1.8
21 C  s               3.9       0.6
21 C  pz              0.2       4.1
21 C  px              3.7      14.7
21 C  py              0.5       1.4
22 H  s               1.3       0.1
23 H  s               0.2       0.8
24 C  s               0.2       0.1
24 C  pz              0.2       0.4
24 C  px              0.4       2.6
24 C  py              0.1       1.8
25 H  s               0.7       0.6
26 H  s               0.9       0.1
27 H  s               0.5       0.5
28 H  s               3.1       0.3
29 H  s               0.1       0.0

QR-MO GENERATION
 Dim     =  182
 Mult    =    2
 NEl     =  103
 N(DOMO) =   51
 N(SOMO) =    1
 N(VMO)  =  130


                ***Quasi-Restricted Orbitals were saved in Mo-TAEA-NH3_0_2_bp86_lanl2dz_6-31gpol.opt.qro***

Orbital Energies of Quasi-Restricted MO's
   0( 2) :   -14.045349 a.u.  -382.193 eV
   1( 2) :   -14.043163 a.u.  -382.134 eV
   2( 2) :   -13.957978 a.u.  -379.816 eV
   3( 2) :   -13.955736 a.u.  -379.755 eV
   4( 2) :   -13.955542 a.u.  -379.750 eV
   5( 2) :    -9.929252 a.u.  -270.189 eV
   6( 2) :    -9.927877 a.u.  -270.151 eV
   7( 2) :    -9.926585 a.u.  -270.116 eV
   8( 2) :    -9.917998 a.u.  -269.882 eV
   9( 2) :    -9.917692 a.u.  -269.874 eV
  10( 2) :    -9.913907 a.u.  -269.771 eV
  11( 2) :    -2.241005 a.u.   -60.981 eV
  12( 2) :    -1.318293 a.u.   -35.873 eV
  13( 2) :    -1.308451 a.u.   -35.605 eV
  14( 2) :    -1.288478 a.u.   -35.061 eV
  15( 2) :    -0.839361 a.u.   -22.840 eV
  16( 2) :    -0.814118 a.u.   -22.153 eV
  17( 2) :    -0.743918 a.u.   -20.243 eV
  18( 2) :    -0.741503 a.u.   -20.177 eV
  19( 2) :    -0.728650 a.u.   -19.828 eV
  20( 2) :    -0.640784 a.u.   -17.437 eV
  21( 2) :    -0.639512 a.u.   -17.402 eV
  22( 2) :    -0.586379 a.u.   -15.956 eV
  23( 2) :    -0.523402 a.u.   -14.243 eV
  24( 2) :    -0.521803 a.u.   -14.199 eV
  25( 2) :    -0.491768 a.u.   -13.382 eV
  26( 2) :    -0.446932 a.u.   -12.162 eV
  27( 2) :    -0.446098 a.u.   -12.139 eV
  28( 2) :    -0.425342 a.u.   -11.574 eV
  29( 2) :    -0.423149 a.u.   -11.514 eV
  30( 2) :    -0.416439 a.u.   -11.332 eV
  31( 2) :    -0.401981 a.u.   -10.938 eV
  32( 2) :    -0.396966 a.u.   -10.802 eV
  33( 2) :    -0.368481 a.u.   -10.027 eV
  34( 2) :    -0.346331 a.u.    -9.424 eV
  35( 2) :    -0.339555 a.u.    -9.240 eV
  36( 2) :    -0.335794 a.u.    -9.137 eV
  37( 2) :    -0.315322 a.u.    -8.580 eV
  38( 2) :    -0.309473 a.u.    -8.421 eV
  39( 2) :    -0.308365 a.u.    -8.391 eV
  40( 2) :    -0.303466 a.u.    -8.258 eV
  41( 2) :    -0.292872 a.u.    -7.969 eV
  42( 2) :    -0.291368 a.u.    -7.929 eV
  43( 2) :    -0.269435 a.u.    -7.332 eV
  44( 2) :    -0.251597 a.u.    -6.846 eV
  45( 2) :    -0.249628 a.u.    -6.793 eV
  46( 2) :    -0.222222 a.u.    -6.047 eV
  47( 2) :    -0.163876 a.u.    -4.459 eV
  48( 2) :    -0.159024 a.u.    -4.327 eV
  49( 2) :    -0.133562 a.u.    -3.634 eV
  50( 2) :    -0.051744 a.u.    -1.408 eV
  51( 1) :    -0.062443 a.u.    -1.699 eV alpha=   -2.420 beta=   -0.979
  52( 0) :    -0.019904 a.u.    -0.542 eV
  53( 0) :     0.016957 a.u.     0.461 eV
  54( 0) :     0.021363 a.u.     0.581 eV
  55( 0) :     0.026606 a.u.     0.724 eV
  56( 0) :     0.029670 a.u.     0.807 eV
  57( 0) :     0.057489 a.u.     1.564 eV
  58( 0) :     0.077422 a.u.     2.107 eV
  59( 0) :     0.093493 a.u.     2.544 eV
  60( 0) :     0.097797 a.u.     2.661 eV
  61( 0) :     0.099089 a.u.     2.696 eV
  62( 0) :     0.111073 a.u.     3.022 eV
  63( 0) :     0.118073 a.u.     3.213 eV
  64( 0) :     0.119523 a.u.     3.252 eV
  65( 0) :     0.127198 a.u.     3.461 eV
  66( 0) :     0.129110 a.u.     3.513 eV
  67( 0) :     0.134661 a.u.     3.664 eV
  68( 0) :     0.143899 a.u.     3.916 eV
  69( 0) :     0.149822 a.u.     4.077 eV
  70( 0) :     0.152079 a.u.     4.138 eV
  71( 0) :     0.158812 a.u.     4.321 eV
  72( 0) :     0.162761 a.u.     4.429 eV
  73( 0) :     0.166418 a.u.     4.528 eV
  74( 0) :     0.169921 a.u.     4.624 eV
  75( 0) :     0.170915 a.u.     4.651 eV
  76( 0) :     0.188066 a.u.     5.118 eV
  77( 0) :     0.199379 a.u.     5.425 eV
  78( 0) :     0.201219 a.u.     5.475 eV
  79( 0) :     0.206726 a.u.     5.625 eV
  80( 0) :     0.209267 a.u.     5.694 eV
  81( 0) :     0.221351 a.u.     6.023 eV
  82( 0) :     0.229015 a.u.     6.232 eV
  83( 0) :     0.236875 a.u.     6.446 eV
  84( 0) :     0.239097 a.u.     6.506 eV
  85( 0) :     0.258613 a.u.     7.037 eV
  86( 0) :     0.277784 a.u.     7.559 eV
  87( 0) :     0.279926 a.u.     7.617 eV
  88( 0) :     0.284521 a.u.     7.742 eV
  89( 0) :     0.318640 a.u.     8.671 eV
  90( 0) :     0.320463 a.u.     8.720 eV
  91( 0) :     0.344727 a.u.     9.381 eV
  92( 0) :     0.351406 a.u.     9.562 eV
  93( 0) :     0.352337 a.u.     9.588 eV
  94( 0) :     0.372081 a.u.    10.125 eV
  95( 0) :     0.382071 a.u.    10.397 eV
  96( 0) :     0.382189 a.u.    10.400 eV
  97( 0) :     0.394895 a.u.    10.746 eV
  98( 0) :     0.434525 a.u.    11.824 eV
  99( 0) :     0.437990 a.u.    11.918 eV
 100( 0) :     0.443063 a.u.    12.056 eV
 101( 0) :     0.469117 a.u.    12.765 eV
 102( 0) :     0.475984 a.u.    12.952 eV
 103( 0) :     0.483294 a.u.    13.151 eV
 104( 0) :     0.493805 a.u.    13.437 eV
 105( 0) :     0.497555 a.u.    13.539 eV
 106( 0) :     0.507891 a.u.    13.820 eV
 107( 0) :     0.539252 a.u.    14.674 eV
 108( 0) :     0.547215 a.u.    14.890 eV
 109( 0) :     0.580646 a.u.    15.800 eV
 110( 0) :     0.590382 a.u.    16.065 eV
 111( 0) :     0.594752 a.u.    16.184 eV
 112( 0) :     0.763953 a.u.    20.788 eV
 113( 0) :     0.774818 a.u.    21.084 eV
 114( 0) :     0.793600 a.u.    21.595 eV
 115( 0) :     0.822090 a.u.    22.370 eV
 116( 0) :     0.825418 a.u.    22.461 eV
 117( 0) :     0.832793 a.u.    22.661 eV
 118( 0) :     0.855732 a.u.    23.286 eV
 119( 0) :     0.887516 a.u.    24.151 eV
 120( 0) :     0.892106 a.u.    24.275 eV
 121( 0) :     0.896785 a.u.    24.403 eV
 122( 0) :     0.911433 a.u.    24.801 eV
 123( 0) :     0.912273 a.u.    24.824 eV
 124( 0) :     0.920311 a.u.    25.043 eV
 125( 0) :     0.936821 a.u.    25.492 eV
 126( 0) :     0.941521 a.u.    25.620 eV
 127( 0) :     0.950081 a.u.    25.853 eV
 128( 0) :     0.961558 a.u.    26.165 eV
 129( 0) :     0.965054 a.u.    26.260 eV
 130( 0) :     0.977698 a.u.    26.605 eV
 131( 0) :     0.991226 a.u.    26.973 eV
 132( 0) :     1.011990 a.u.    27.538 eV
 133( 0) :     1.012987 a.u.    27.565 eV
 134( 0) :     1.019677 a.u.    27.747 eV
 135( 0) :     1.035224 a.u.    28.170 eV
 136( 0) :     1.044254 a.u.    28.416 eV
 137( 0) :     1.053880 a.u.    28.678 eV
 138( 0) :     1.056188 a.u.    28.740 eV
 139( 0) :     1.074511 a.u.    29.239 eV
 140( 0) :     1.097616 a.u.    29.868 eV
 141( 0) :     1.102122 a.u.    29.990 eV
 142( 0) :     1.132417 a.u.    30.815 eV
 143( 0) :     1.186081 a.u.    32.275 eV
 144( 0) :     1.196081 a.u.    32.547 eV
 145( 0) :     1.208781 a.u.    32.893 eV
 146( 0) :     1.270099 a.u.    34.561 eV
 147( 0) :     1.279041 a.u.    34.804 eV
 148( 0) :     1.309753 a.u.    35.640 eV
 149( 0) :     1.413977 a.u.    38.476 eV
 150( 0) :     1.429621 a.u.    38.902 eV
 151( 0) :     1.523400 a.u.    41.454 eV
 152( 0) :     1.554897 a.u.    42.311 eV
 153( 0) :     1.583277 a.u.    43.083 eV
 154( 0) :     1.598653 a.u.    43.502 eV
 155( 0) :     1.663205 a.u.    45.258 eV
 156( 0) :     1.688306 a.u.    45.941 eV
 157( 0) :     1.701888 a.u.    46.311 eV
 158( 0) :     1.718176 a.u.    46.754 eV
 159( 0) :     1.740184 a.u.    47.353 eV
 160( 0) :     1.746288 a.u.    47.519 eV
 161( 0) :     1.764028 a.u.    48.002 eV
 162( 0) :     1.771597 a.u.    48.208 eV
 163( 0) :     1.797415 a.u.    48.910 eV
 164( 0) :     1.819539 a.u.    49.512 eV
 165( 0) :     1.823121 a.u.    49.610 eV
 166( 0) :     1.845016 a.u.    50.205 eV
 167( 0) :     1.868212 a.u.    50.837 eV
 168( 0) :     1.887124 a.u.    51.351 eV
 169( 0) :     1.900856 a.u.    51.725 eV
 170( 0) :     2.019043 a.u.    54.941 eV
 171( 0) :     2.091681 a.u.    56.918 eV
 172( 0) :     2.108575 a.u.    57.377 eV
 173( 0) :     2.165776 a.u.    58.934 eV
 174( 0) :     2.181798 a.u.    59.370 eV
 175( 0) :     2.187805 a.u.    59.533 eV
 176( 0) :     2.306571 a.u.    62.765 eV
 177( 0) :     2.310397 a.u.    62.869 eV
 178( 0) :     2.317508 a.u.    63.063 eV
 179( 0) :     2.347018 a.u.    63.866 eV
 180( 0) :     2.356464 a.u.    64.123 eV
 181( 0) :    10.027684 a.u.   272.867 eV
-------
TIMINGS
-------

Total SCF time: 0 days 0 hours 0 min 8 sec 

Total time                  ....       8.072 sec
Sum of individual times     ....       7.708 sec  ( 95.5%)

Fock matrix formation       ....       5.951 sec  ( 73.7%)
  Split-RI-J                ....       3.687 sec  ( 62.0% of F)
  XC integration            ....       1.835 sec  ( 30.8% of F)
    Basis function eval.    ....       0.474 sec  ( 25.8% of XC)
    Density eval.           ....       0.390 sec  ( 21.3% of XC)
    XC-Functional eval.     ....       0.118 sec  (  6.4% of XC)
    XC-Potential eval.      ....       0.457 sec  ( 24.9% of XC)
Diagonalization             ....       0.158 sec  (  2.0%)
Density matrix formation    ....       0.011 sec  (  0.1%)
Population analysis         ....       0.351 sec  (  4.4%)
Initial guess               ....       0.017 sec  (  0.2%)
Orbital Transformation      ....       0.000 sec  (  0.0%)
Orbital Orthonormalization  ....       0.008 sec  (  0.1%)
DIIS solution               ....       0.126 sec  (  1.6%)
Grid generation             ....       1.093 sec  ( 13.5%)

-------------------------   --------------------
FINAL SINGLE POINT ENERGY      -580.795572619327
-------------------------   --------------------

                                *** OPTIMIZATION RUN DONE ***

                            ***************************************
                            *     ORCA property calculations      *
                            ***************************************

                                    ---------------------
                                    Active property flags
                                    ---------------------
   (+) Dipole Moment


------------------------------------------------------------------------------
                       ORCA ELECTRIC PROPERTIES CALCULATION
------------------------------------------------------------------------------

Dipole Moment Calculation                       ... on
Quadrupole Moment Calculation                   ... off
Polarizability Calculation                      ... off
GBWName                                         ... Mo-TAEA-NH3_0_2_bp86_lanl2dz_6-31gpol.opt.gbw
Electron density file                           ... Mo-TAEA-NH3_0_2_bp86_lanl2dz_6-31gpol.opt.scfp
The origin for moment calculation is the CENTER OF MASS  = (13.875726, 30.034957 26.912410)

-------------
DIPOLE MOMENT
-------------
                                X             Y             Z
Electronic contribution:    -13.47711     -11.52952     -52.04300
Nuclear contribution   :     13.08235      11.34227      51.34275
                        -----------------------------------------
Total Dipole Moment    :     -0.39475      -0.18725      -0.70025
                        -----------------------------------------
Magnitude (a.u.)       :      0.82537
Magnitude (Debye)      :      2.09793



--------------------
Rotational spectrum 
--------------------
 
Rotational constants in cm-1:     0.029881     0.022964     0.022877 
Rotational constants in MHz :   895.812205   688.437631   685.832232 

 Dipole components along the rotational axes: 
x,y,z [a.u.] :    -0.798163    -0.034794     0.207277 
x,y,z [Debye]:    -2.028768    -0.088438     0.526857 

 

Timings for individual modules:

Sum of individual times         ...      842.802 sec (=  14.047 min)
GTO integral calculation        ...      116.792 sec (=   1.947 min)  13.9 %
SCF iterations                  ...      456.801 sec (=   7.613 min)  54.2 %
SCF Gradient evaluation         ...      261.778 sec (=   4.363 min)  31.1 %
Geometry relaxation             ...        7.430 sec (=   0.124 min)   0.9 %
                             ****ORCA TERMINATED NORMALLY****
TOTAL RUN TIME: 0 days 0 hours 14 minutes 11 seconds 313 msec
