
                                 *****************
                                 * O   R   C   A *
                                 *****************

           --- An Ab Initio, DFT and Semiempirical electronic structure package ---

                  #######################################################
                  #                        -***-                        #
                  #          Department of theory and spectroscopy      #
                  #               Directorship: Frank Neese             #
                  #        Max Planck Institute fuer Kohlenforschung    #
                  #                Kaiser Wilhelm Platz 1               #
                  #                 D-45470 Muelheim/Ruhr               #
                  #                      Germany                        #
                  #                                                     #
                  #                  All rights reserved                #
                  #                        -***-                        #
                  #######################################################


                         Program Version 4.2.0 -  RELEASE  -


 With contributions from (in alphabetic order):
   Daniel Aravena         : Magnetic Suceptibility
   Michael Atanasov       : Ab Initio Ligand Field Theory (pilot matlab implementation)
   Alexander A. Auer      : GIAO ZORA, VPT2
   Ute Becker             : Parallelization
   Giovanni Bistoni       : ED, misc. LED, open-shell LED, HFLED
   Martin Brehm           : Molecular dynamics
   Dmytro Bykov           : SCF Hessian
   Vijay G. Chilkuri      : MRCI spin determinant printing, contributions to CSF-ICE
   Dipayan Datta          : RHF DLPNO-CCSD density
   Achintya Kumar Dutta   : EOM-CC, STEOM-CC
   Dmitry Ganyushin       : Spin-Orbit,Spin-Spin,Magnetic field MRCI
   Miquel Garcia          : C-PCM Hessian, Gaussian charge scheme
   Yang Guo               : DLPNO-NEVPT2, CIM, IAO-localization
   Andreas Hansen         : Spin unrestricted coupled pair/coupled cluster methods
   Benjamin Helmich-Paris : CASSCF linear response (MC-RPA)
   Lee Huntington         : MR-EOM, pCC
   Robert Izsak           : Overlap fitted RIJCOSX, COSX-SCS-MP3, EOM
   Christian Kollmar      : KDIIS, OOCD, Brueckner-CCSD(T), CCSD density
   Simone Kossmann        : Meta GGA functionals, TD-DFT gradient, OOMP2, MP2 Hessian
   Martin Krupicka        : AUTO-CI
   Lucas Lang             : DCDCAS
   Dagmar Lenk            : GEPOL surface, SMD
   Dimitrios Liakos       : Extrapolation schemes; Compound Job, initial MDCI parallelization
   Dimitrios Manganas     : Further ROCIS development; embedding schemes
   Dimitrios Pantazis     : SARC Basis sets
   Taras Petrenko         : DFT Hessian,TD-DFT gradient, ASA, ECA, R-Raman, ABS, FL, XAS/XES, NRVS
   Peter Pinski           : DLPNO-MP2, DLPNO-MP2 Gradient
   Christoph Reimann      : Effective Core Potentials
   Marius Retegan         : Local ZFS, SOC
   Christoph Riplinger    : Optimizer, TS searches, QM/MM, DLPNO-CCSD(T), (RO)-DLPNO pert. Triples
   Tobias Risthaus        : Range-separated hybrids, TD-DFT gradient, RPA, STAB
   Michael Roemelt        : Original ROCIS implementation
   Masaaki Saitow         : Open-shell DLPNO-CCSD energy and density
   Barbara Sandhoefer     : DKH picture change effects
   Avijit Sen             : IP-ROCIS
   Kantharuban Sivalingam : CASSCF convergence, NEVPT2, FIC-MRCI
   Bernardo de Souza      : ESD, SOC TD-DFT
   Georgi Stoychev        : AutoAux, RI-MP2 NMR
   Willem Van den Heuvel  : Paramagnetic NMR
   Boris Wezisla          : Elementary symmetry handling
   Frank Wennmohs         : Technical directorship


 We gratefully acknowledge several colleagues who have allowed us to
 interface, adapt or use parts of their codes:
   Stefan Grimme, W. Hujo, H. Kruse,             : VdW corrections, initial TS optimization,
                  C. Bannwarth                     DFT functionals, gCP, sTDA/sTD-DF
   Ed Valeev, F. Pavosevic, A. Kumar             : LibInt (2-el integral package), F12 methods
   Garnet Chan, S. Sharma, J. Yang, R. Olivares  : DMRG
   Ulf Ekstrom                                   : XCFun DFT Library
   Mihaly Kallay                                 : mrcc  (arbitrary order and MRCC methods)
   Andreas Klamt, Michael Diedenhofen            : otool_cosmo (COSMO solvation model)
   Jiri Pittner, Ondrej Demel                    : Mk-CCSD
   Frank Weinhold                                : gennbo (NPA and NBO analysis)
   Christopher J. Cramer and Donald G. Truhlar   : smd solvation model
   Lars Goerigk                                  : TD-DFT with DH, B97 family of functionals
   V. Asgeirsson, H. Jonsson                     : NEB implementation
   FAccTs GmbH                                   : IRC, NEB, NEB-TS, Multilevel, MM, QM/MM, CI optimization
   S Lehtola, MJT Oliveira, MAL Marques          : LibXC Library


 Your calculation uses the libint2 library for the computation of 2-el integrals
 For citations please refer to: http://libint.valeyev.net

 Your ORCA version has been built with support for libXC version: 4.2.3
 For citations please refer to: https://tddft.org/programs/libxc/

 This ORCA versions uses:
   CBLAS   interface :  Fast vector & matrix operations
   LAPACKE interface :  Fast linear algebra routines
   SCALAPACK package :  Parallel linear algebra routines




***************************************
The coordinates will be read from file: Mo-TAEA-NH3_0_2_bp86_lanl2dz_6-31gpol.opt.xyz
***************************************


----- Orbital basis set information -----
Your calculation utilizes the basis: def2-SVP
   F. Weigend and R. Ahlrichs, Phys. Chem. Chem. Phys. 7, 3297 (2005).

----- AuxJ basis set information -----
Your calculation utilizes the AutoAux generation procedure.
  G. L. Stoychev, A. A. Auer, F. Neese, J. Chem. Theory Comput. 13, 554 (2017)

----- AuxC basis set information -----
Your calculation utilizes the AutoAux generation procedure.
  G. L. Stoychev, A. A. Auer, F. Neese, J. Chem. Theory Comput. 13, 554 (2017)

----- AuxJK basis set information -----
Your calculation utilizes the AutoAux generation procedure.
  G. L. Stoychev, A. A. Auer, F. Neese, J. Chem. Theory Comput. 13, 554 (2017)

cite the ECPs for Mo [Def2-ECP] as follows:
Ce-Yb(ecp-28): M. Dolg, H. Stoll, H.Preuss, J. Chem. Phys., 1989, 90, 1730-1734.
Y-Cd(ecp-28), Hf-Hg(ecp-46): D. Andrae,U. Haeussermann, M. Dolg, H. Stoll, H. Preuss, Theor. Chim. Acta, 1990, 77, 123-141.
In-Sb(ecp-28), Tl-Bi(ecp-46): B. Metz, H. Stoll, M. Dolg, J. Chem. Phys., 2000, 113, 2563-2569.
Te-Xe(ecp-28), Po-Rn(ecp-46): K. A. Peterson, D. Figgen, E. Goll, H. Stoll, M. Dolg, J. Chem. Phys., 2003, 119, 11113-11123.
Rb(ecp-28), Cs(ecp-46): T. Leininger, A. Nicklass, W. Kuechle, H. Stoll, M. Dolg, A. Bergner, Chem. Phys. Lett., 1996, 255, 274-280.
Sr(ecp-28), Ba(ecp-46): M. Kaupp, P. V. Schleyer, H. Stoll and H. Preuss, J. Chem. Phys., 1991, 94, 1360-1366.
La(ecp-46): M. Dolg, H. Stoll, A. Savin, H. Preuss, Theor. Chim. Acta, 1989, 75, 173-194.
Lu(ecp-28): X. Cao, M. Dolg, J. Chem. Phys., 2001, 115, 7348-7355.

ECP parameters for Mo [Def2-ECP] have been obtained from:
TURBOMOLE (7.0.2)

================================================================================
                                        WARNINGS
                       Please study these warnings very carefully!
================================================================================


INFO   : the flag for use of LIBINT has been found!

================================================================================
                                       INPUT FILE
================================================================================
NAME = Mo-TAEA-NH3_0_2_casscf-3-2-2_def2-tzvp_def2-svp.epr.inp
|  1> !uhf def2-svp tightscf ri-somf(1x)
|  2> !normalprint autoaux rijcosx
|  3> !pal8
|  4> !moread
|  5> 
|  6> %moinp "Mo-TAEA-NH3_0_2_bp86_lanl2dz_6-31gpol.opt.uno"
|  7> 
|  8> %scf
|  9>   maxiter 500
| 10> end
| 11> 
| 12> %basis
| 13>   newgto Mo "def2-tzvpp" end
| 14> end
| 15> 
| 16> %casscf
| 17>   mult 2
| 18>   nel 3
| 19>   norb 2
| 20>   nroots 2
| 21>   rel
| 22>     gtensor true
| 23>     dosoc true
| 24>   end
| 25> end
| 26> 
| 27> *xyzfile 0 2 Mo-TAEA-NH3_0_2_bp86_lanl2dz_6-31gpol.opt.xyz
| 28> 
| 29>                          ****END OF INPUT****
================================================================================

                       ****************************
                       * Single Point Calculation *
                       ****************************

---------------------------------
CARTESIAN COORDINATES (ANGSTROEM)
---------------------------------
  Mo     7.161049   15.739738   13.552686
  N      5.471131   15.197321   14.433170
  N      8.746513   14.519192   13.704041
  N      7.513929   17.690751   13.295368
  N      7.695166   16.198866   15.587176
  N      6.603922   15.231830   11.462641
  H      7.300179   14.609821   11.024603
  H      6.582185   16.069042   10.861573
  H      5.689405   14.766295   11.323835
  C      5.318330   15.472719   15.889445
  H      4.718837   14.691744   16.407905
  H      4.803931   16.445807   16.083145
  C      6.730529   15.489986   16.521529
  H      6.730688   15.959049   17.529273
  H      7.091922   14.450770   16.617908
  C      9.341792   14.392155   15.055764
  H      8.898896   13.552112   15.643655
  H     10.439166   14.205749   15.018849
  C      9.115827   15.727841   15.802263
  H      9.351319   15.638174   16.885554
  H      9.771732   16.497146   15.359352
  C      8.072414   18.413421   14.460314
  H      7.732135   19.471513   14.510628
  H      9.187754   18.441834   14.435862
  C      7.596196   17.702186   15.754170
  H      8.166575   18.034873   16.649563
  H      6.527762   17.934893   15.909817
  H      7.282313   18.335594   12.527952
  H      4.557056   14.915977   14.040522
  H      8.871089   13.632708   13.191849

----------------------------
CARTESIAN COORDINATES (A.U.)
----------------------------
  NO LB      ZA    FRAG     MASS         X           Y           Z
   0 Mo   14.0000*   0    95.940   13.532422   29.743793   25.610866
   1 N     7.0000    0    14.007   10.338940   28.718775   27.274739
   2 N     7.0000    0    14.007   16.528514   27.437296   25.896884
   3 N     7.0000    0    14.007   14.199268   33.430674   25.124604
   4 N     7.0000    0    14.007   14.541757   30.611421   29.455494
   5 N     7.0000    0    14.007   12.479604   28.783986   21.661253
   6 H     1.0000    0     1.008   13.795339   27.608561   20.833480
   7 H     1.0000    0     1.008   12.438526   30.366089   20.525399
   8 H     1.0000    0     1.008   10.751417   27.904253   21.398946
   9 C     6.0000    0    12.011   10.050188   29.239201   30.026700
  10 H     1.0000    0     1.008    8.917310   27.763372   31.006447
  11 H     1.0000    0     1.008    9.078115   31.078071   30.392739
  12 C     6.0000    0    12.011   12.718857   29.271831   31.221165
  13 H     1.0000    0     1.008   12.719157   30.158232   33.125525
  14 H     1.0000    0     1.008   13.401791   27.307997   31.403296
  15 C     6.0000    0    12.011   17.653429   27.197232   28.451270
  16 H     1.0000    0     1.008   16.816477   25.609780   29.562224
  17 H     1.0000    0     1.008   19.727164   26.844974   28.381512
  18 C     6.0000    0    12.011   17.226417   29.721313   29.861948
  19 H     1.0000    0     1.008   17.671432   29.551867   31.909073
  20 H     1.0000    0     1.008   18.465898   31.175088   29.024968
  21 C     6.0000    0    12.011   15.254652   34.796322   27.326033
  22 H     1.0000    0     1.008   14.611617   36.795826   27.421113
  23 H     1.0000    0     1.008   17.362339   34.850015   27.279825
  24 C     6.0000    0    12.011   14.354730   33.452283   29.771067
  25 H     1.0000    0     1.008   15.432589   34.080971   31.463114
  26 H     1.0000    0     1.008   12.335682   33.892037   30.065196
  27 H     1.0000    0     1.008   13.761577   34.649251   23.674398
  28 H     1.0000    0     1.008    8.611588   28.187112   26.532742
  29 H     1.0000    0     1.008   16.763929   25.762084   24.928982
* core charge reduced due to ECP

--------------------------------
INTERNAL COORDINATES (ANGSTROEM)
--------------------------------
 Mo     0   0   0     0.000000000000     0.00000000     0.00000000
 N      1   0   0     1.981234642873     0.00000000     0.00000000
 N      1   2   0     2.006572682212   118.28790299     0.00000000
 N      1   2   3     1.999297310526   118.35363094   207.25629586
 N      1   2   3     2.152957791624    81.37503503   283.86639245
 N      1   2   3     2.221857283880    98.13949128   103.06988836
 H      6   1   2     1.031283661258   111.60087104   233.50743684
 H      6   1   2     1.030863984925   111.59942952   116.54725674
 H      6   1   2     1.035534290335   116.76319240   355.02085702
 C      2   1   3     1.489942550913   118.11486432    82.33578703
 H     10   2   1     1.112705899112   112.39177158   213.59800283
 H     10   2   1     1.117598495088   112.18148717    93.74387220
 C      5   1   2     1.518568853087   108.92250654    16.99158323
 H     13   5   1     1.111561056865   111.14576342   199.86639625
 H     13   5   1     1.104474753788   106.56280956    81.79111518
 C      3   1   2     1.482447642628   115.98802362   291.79060209
 H     16   3   1     1.116891407069   112.65419201    91.04333353
 H     16   3   1     1.113704756387   112.32029921   211.17653548
 C      5   1   2     1.512086208770   107.52204052   137.76368300
 H     19   5   1     1.112212683555   111.25936073   197.71409111
 H     19   5   1     1.103725768588   106.50684944    79.36845554
 C      4   1   2     1.480289376421   116.21295274    82.42716226
 H     22   4   1     1.112600639760   112.61131513   212.51074522
 H     22   4   1     1.115969832290   111.85473104    92.72859252
 C      5   1   2     1.515800861446   107.42203338   257.02698309
 H     25   5   1     1.112537513584   110.59526786   198.66482789
 H     25   5   1     1.104504813610   106.71669465    80.67871613
 H      4   1   2     1.028783563807   131.90775782   270.53642578
 H      2   1   3     1.033857110109   131.28910945   247.89365626
 H      3   1   2     1.031364636486   125.50726437    74.89190536

---------------------------
INTERNAL COORDINATES (A.U.)
---------------------------
 Mo     0   0   0     0.000000000000     0.00000000     0.00000000
 N      1   0   0     3.743990882067     0.00000000     0.00000000
 N      1   2   0     3.791872837188   118.28790299     0.00000000
 N      1   2   3     3.778124377179   118.35363094   207.25629586
 N      1   2   3     4.068500604062    81.37503503   283.86639245
 N      1   2   3     4.198701775191    98.13949128   103.06988836
 H      6   1   2     1.948843686166   111.60087104   233.50743684
 H      6   1   2     1.948050612830   111.59942952   116.54725674
 H      6   1   2     1.956876211018   116.76319240   355.02085702
 C      2   1   3     2.815583376501   118.11486432    82.33578703
 H     10   2   1     2.102709416921   112.39177158   213.59800283
 H     10   2   1     2.111955083398   112.18148717    93.74387220
 C      5   1   2     2.869679247837   108.92250654    16.99158323
 H     13   5   1     2.100545978607   111.14576342   199.86639625
 H     13   5   1     2.087154806489   106.56280956    81.79111518
 C      3   1   2     2.801420052444   115.98802362   291.79060209
 H     16   3   1     2.110618880691   112.65419201    91.04333353
 H     16   3   1     2.104596983617   112.32029921   211.17653548
 C      5   1   2     2.857428825454   107.52204052   137.76368300
 H     19   5   1     2.101777374592   111.25936073   197.71409111
 H     19   5   1     2.085739429584   106.50684944    79.36845554
 C      4   1   2     2.797341520389   116.21295274    82.42716226
 H     22   4   1     2.102510505572   112.61131513   212.51074522
 H     22   4   1     2.108877356746   111.85473104    92.72859252
 C      5   1   2     2.864448501696   107.42203338   257.02698309
 H     25   5   1     2.102391214387   110.59526786   198.66482789
 H     25   5   1     2.087211611321   106.71669465    80.67871613
 H      4   1   2     1.944119186674   131.90775782   270.53642578
 H      2   1   3     1.953706799712   131.28910945   247.89365626
 H      3   1   2     1.948996707170   125.50726437    74.89190536

---------------------
BASIS SET INFORMATION
---------------------
There are 4 groups of distinct atoms

 Group   1 Type Mo  : 7s7p5d2f1g contracted to 6s4p3d2f1g pattern {211111/4111/311/11/1}
 Group   2 Type N   : 7s4p1d contracted to 3s2p1d pattern {511/31/1}
 Group   3 Type H   : 4s1p contracted to 2s1p pattern {31/1}
 Group   4 Type C   : 7s4p1d contracted to 3s2p1d pattern {511/31/1}

Atom   0Mo   basis set group =>   1
Atom   1N    basis set group =>   2
Atom   2N    basis set group =>   2
Atom   3N    basis set group =>   2
Atom   4N    basis set group =>   2
Atom   5N    basis set group =>   2
Atom   6H    basis set group =>   3
Atom   7H    basis set group =>   3
Atom   8H    basis set group =>   3
Atom   9C    basis set group =>   4
Atom  10H    basis set group =>   3
Atom  11H    basis set group =>   3
Atom  12C    basis set group =>   4
Atom  13H    basis set group =>   3
Atom  14H    basis set group =>   3
Atom  15C    basis set group =>   4
Atom  16H    basis set group =>   3
Atom  17H    basis set group =>   3
Atom  18C    basis set group =>   4
Atom  19H    basis set group =>   3
Atom  20H    basis set group =>   3
Atom  21C    basis set group =>   4
Atom  22H    basis set group =>   3
Atom  23H    basis set group =>   3
Atom  24C    basis set group =>   4
Atom  25H    basis set group =>   3
Atom  26H    basis set group =>   3
Atom  27H    basis set group =>   3
Atom  28H    basis set group =>   3
Atom  29H    basis set group =>   3
---------------------------------
AUXILIARY/J BASIS SET INFORMATION
---------------------------------
There are 4 groups of distinct atoms

 Group   1 Type Mo  : 12s11p11d9f9g3h3i contracted to 12s11p11d9f9g3h3i pattern {111111111111/11111111111/11111111111/111111111/111111111/111/111}
 Group   2 Type N   : 14s11p10d2f contracted to 14s11p10d2f pattern {11111111111111/11111111111/1111111111/11}
 Group   3 Type H   : 9s2p1d contracted to 9s2p1d pattern {111111111/11/1}
 Group   4 Type C   : 14s11p10d2f contracted to 14s11p10d2f pattern {11111111111111/11111111111/1111111111/11}

Atom   0Mo   basis set group =>   1
Atom   1N    basis set group =>   2
Atom   2N    basis set group =>   2
Atom   3N    basis set group =>   2
Atom   4N    basis set group =>   2
Atom   5N    basis set group =>   2
Atom   6H    basis set group =>   3
Atom   7H    basis set group =>   3
Atom   8H    basis set group =>   3
Atom   9C    basis set group =>   4
Atom  10H    basis set group =>   3
Atom  11H    basis set group =>   3
Atom  12C    basis set group =>   4
Atom  13H    basis set group =>   3
Atom  14H    basis set group =>   3
Atom  15C    basis set group =>   4
Atom  16H    basis set group =>   3
Atom  17H    basis set group =>   3
Atom  18C    basis set group =>   4
Atom  19H    basis set group =>   3
Atom  20H    basis set group =>   3
Atom  21C    basis set group =>   4
Atom  22H    basis set group =>   3
Atom  23H    basis set group =>   3
Atom  24C    basis set group =>   4
Atom  25H    basis set group =>   3
Atom  26H    basis set group =>   3
Atom  27H    basis set group =>   3
Atom  28H    basis set group =>   3
Atom  29H    basis set group =>   3
---------------------------------
AUXILIARY/C BASIS SET INFORMATION
---------------------------------
There are 4 groups of distinct atoms

 Group   1 Type Mo  : 12s11p11d9f9g3h3i contracted to 12s11p11d9f9g3h3i pattern {111111111111/11111111111/11111111111/111111111/111111111/111/111}
 Group   2 Type N   : 14s11p10d2f contracted to 14s11p10d2f pattern {11111111111111/11111111111/1111111111/11}
 Group   3 Type H   : 9s2p1d contracted to 9s2p1d pattern {111111111/11/1}
 Group   4 Type C   : 14s11p10d2f contracted to 14s11p10d2f pattern {11111111111111/11111111111/1111111111/11}

Atom   0Mo   basis set group =>   1
Atom   1N    basis set group =>   2
Atom   2N    basis set group =>   2
Atom   3N    basis set group =>   2
Atom   4N    basis set group =>   2
Atom   5N    basis set group =>   2
Atom   6H    basis set group =>   3
Atom   7H    basis set group =>   3
Atom   8H    basis set group =>   3
Atom   9C    basis set group =>   4
Atom  10H    basis set group =>   3
Atom  11H    basis set group =>   3
Atom  12C    basis set group =>   4
Atom  13H    basis set group =>   3
Atom  14H    basis set group =>   3
Atom  15C    basis set group =>   4
Atom  16H    basis set group =>   3
Atom  17H    basis set group =>   3
Atom  18C    basis set group =>   4
Atom  19H    basis set group =>   3
Atom  20H    basis set group =>   3
Atom  21C    basis set group =>   4
Atom  22H    basis set group =>   3
Atom  23H    basis set group =>   3
Atom  24C    basis set group =>   4
Atom  25H    basis set group =>   3
Atom  26H    basis set group =>   3
Atom  27H    basis set group =>   3
Atom  28H    basis set group =>   3
Atom  29H    basis set group =>   3
----------------------------------
AUXILIARY/JK BASIS SET INFORMATION
----------------------------------
There are 4 groups of distinct atoms

 Group   1 Type Mo  : 12s11p11d9f9g3h3i contracted to 12s11p11d9f9g3h3i pattern {111111111111/11111111111/11111111111/111111111/111111111/111/111}
 Group   2 Type N   : 14s11p10d2f contracted to 14s11p10d2f pattern {11111111111111/11111111111/1111111111/11}
 Group   3 Type H   : 9s2p1d contracted to 9s2p1d pattern {111111111/11/1}
 Group   4 Type C   : 14s11p10d2f contracted to 14s11p10d2f pattern {11111111111111/11111111111/1111111111/11}

Atom   0Mo   basis set group =>   1
Atom   1N    basis set group =>   2
Atom   2N    basis set group =>   2
Atom   3N    basis set group =>   2
Atom   4N    basis set group =>   2
Atom   5N    basis set group =>   2
Atom   6H    basis set group =>   3
Atom   7H    basis set group =>   3
Atom   8H    basis set group =>   3
Atom   9C    basis set group =>   4
Atom  10H    basis set group =>   3
Atom  11H    basis set group =>   3
Atom  12C    basis set group =>   4
Atom  13H    basis set group =>   3
Atom  14H    basis set group =>   3
Atom  15C    basis set group =>   4
Atom  16H    basis set group =>   3
Atom  17H    basis set group =>   3
Atom  18C    basis set group =>   4
Atom  19H    basis set group =>   3
Atom  20H    basis set group =>   3
Atom  21C    basis set group =>   4
Atom  22H    basis set group =>   3
Atom  23H    basis set group =>   3
Atom  24C    basis set group =>   4
Atom  25H    basis set group =>   3
Atom  26H    basis set group =>   3
Atom  27H    basis set group =>   3
Atom  28H    basis set group =>   3
Atom  29H    basis set group =>   3
-------------------------
ECP PARAMETER INFORMATION
-------------------------

 Group 1, Type Mo ECP Def2-ECP (replacing 28 core electrons, lmax=3)

Atom   0Mo   ECP group =>   1



           ************************************************************
           *        Program running with 8 parallel MPI-processes     *
           *              working on a common directory               *
           ************************************************************
------------------------------------------------------------------------------
                           ORCA GTO INTEGRAL CALCULATION
                           -- RI-GTO INTEGRALS CHOSEN --
------------------------------------------------------------------------------

                         BASIS SET STATISTICS AND STARTUP INFO

Gaussian basis set:
 # of primitive gaussian shells          ...  244
 # of primitive gaussian functions       ...  466
 # of contracted shells                  ...  136
 # of contracted basis functions         ...  300
 Highest angular momentum                ...    4
 Maximum contraction depth               ...    5
Auxiliary gaussian basis set:
 # of primitive gaussian shells          ...  681
 # of primitive gaussian functions       ... 1897
 # of contracted shells                  ...  681
 # of contracted aux-basis functions     ... 1897
 Highest angular momentum                ...    6
 Maximum contraction depth               ...    1
Ratio of auxiliary to basis functions    ...  6.32
Integral package used                  ... LIBINT
 One Electron integrals                  
   ECP integrals                         ... done
 Ordering auxiliary basis shells         ... done
 Integral threshhold             Thresh  ...  2.500e-11
 Primitive cut-off               TCut    ...  2.500e-12
 Pre-screening matrix                    ... done
 Shell pair data                         ... 
 Ordering of the shell pairs             ... done (   0.002 sec) 8523 of 9316 pairs
 Determination of significant pairs      ... done (   0.000 sec)
 Creation of shell pair data             ... done (   0.002 sec)
 Storage of shell pair data              ... done (   0.008 sec)
 Shell pair data done in (   0.011 sec)
 Computing two index integrals           ... done
 Cholesky decomposition of the V-matrix  ... done


Timings:
 Total evaluation time                   ...   1.829 sec (  0.030 min)
 One electron matrix time                ...   1.223 sec (  0.020 min) = 66.9%
 Schwartz matrix evaluation time         ...   0.149 sec (  0.002 min) =  8.2%
 Two index repulsion integral time       ...   0.219 sec (  0.004 min) = 11.9%
 Cholesky decomposition of V             ...   0.190 sec (  0.003 min) = 10.4%
 Three index repulsion integral time     ...   0.000 sec (  0.000 min) =  0.0%



           ************************************************************
           *        Program running with 8 parallel MPI-processes     *
           *              working on a common directory               *
           ************************************************************
-------------------------------------------------------------------------------
                                 ORCA SCF
-------------------------------------------------------------------------------

------------
SCF SETTINGS
------------
Hamiltonian:
 Ab initio Hamiltonian  Method          .... Hartree-Fock(GTOs)
 RI-approximation to the Coulomb term is turned on
   Number of auxiliary basis functions  .... 1897
   RIJ-COSX (HFX calculated with COS-X)).... on


General Settings:
 Integral files         IntName         .... Mo-TAEA-NH3_0_2_casscf-3-2-2_def2-tzvp_def2-svp.epr
 Hartree-Fock type      HFTyp           .... CASSCF
 Total Charge           Charge          ....    0
 Multiplicity           Mult            ....    2
 Number of Electrons    NEL             ....  103
 Basis Dimension        Dim             ....  300
 Nuclear Repulsion      ENuc            ....    929.6310470229 Eh


Diagonalization of the overlap matrix:
Smallest eigenvalue                        ... 1.643e-03
Time for diagonalization                   ...    0.013 sec
Threshold for overlap eigenvalues          ... 1.000e-08
Number of eigenvalues below threshold      ... 0
Time for construction of square roots      ...    0.016 sec
Total time needed                          ...    0.030 sec

---------------------
INITIAL GUESS: MOREAD
---------------------
Guess MOs are being read from file: Mo-TAEA-NH3_0_2_bp86_lanl2dz_6-31gpol.opt.uno
Input Geometry matches current geometry (good)
Atom 0: N(Shells)= 16 and 8 - projection required
Input basis set needs projection
NBasis(read)= 182
NBasis(calc)= 300
Basis set overlap was calculated
Using GuessMode=CMatrix for the initial guess
Initial orthogonal set was formed
CASSCF - fitting 2 shells:
   closed-shell contains  50 orbitals (  0 ...  49)
   active space contains   2 orbitals ( 50 ...  51)
Virtual orbitals were projected
Gram-Schmidt orthogonalization of all MOs with pivot on actives
Initial density was built
Canonicalizing active space vectors CAS(3,2) {50-51} C(300,300) Cact Ract BOVL(182,300) COVL Diag BackTrafo Restore
Active space vectors have been canonicalized
                      ------------------
                      INITIAL GUESS DONE (   0.3 sec)
                      ------------------
--------------------
COSX GRID GENERATION
--------------------

General Integration Accuracy     IntAcc      ...  3.340
Radial Grid Type                 RadialGrid  ... Gauss-Chebyshev
Angular Grid (max. acc.)         AngularGrid ... Lebedev-50
Angular grid pruning method      GridPruning ... 3 (G Style)
Weight generation scheme         WeightScheme... Becke
Basis function cutoff            BFCut       ...    1.0000e-11
Integration weight cutoff        WCut        ...    1.0000e-14
Grids for H and He will be reduced by one unit

# of grid points (after initial pruning)     ...  13324 (   0.0 sec)
# of grid points (after weights+screening)   ...  12003 (   0.0 sec)
nearest neighbour list constructed           ...    0.0 sec
Grid point re-assignment to atoms done       ...    0.0 sec
Grid point division into batches done        ...    0.0 sec
Reduced shell lists constructed in    0.0 sec

Total number of grid points                  ...    12003
Total number of batches                      ...      204
Average number of points per batch           ...       58
Average number of grid points per atom       ...      400
Average number of shells per batch           ...   111.74 (82.16%)
Average number of basis functions per batch  ...   250.93 (83.64%)
Average number of large shells per batch     ...    85.00 (76.07%)
Average number of large basis fcns per batch ...   186.93 (74.49%)
Maximum spatial batch extension              ...   3.78,  4.72,  4.11 au
Average spatial batch extension              ...   0.29,  0.27,  0.27 au

Overlap Fitting                  UseSFitting ... on
Constructing numerical overlap ... done (      0.0 sec)
Inverting numerical overlap    ... done (      0.0 sec)
Obtaining analytic overlap     ... done (      0.0 sec)
Final contraction and storage  ... done (      0.0 sec)


General Integration Accuracy     IntAcc      ...  3.670
Radial Grid Type                 RadialGrid  ... Gauss-Chebyshev
Angular Grid (max. acc.)         AngularGrid ... Lebedev-50
Angular grid pruning method      GridPruning ... 3 (G Style)
Weight generation scheme         WeightScheme... Becke
Basis function cutoff            BFCut       ...    1.0000e-11
Integration weight cutoff        WCut        ...    1.0000e-14
Grids for H and He will be reduced by one unit

# of grid points (after initial pruning)     ...  17018 (   0.0 sec)
# of grid points (after weights+screening)   ...  15306 (   0.0 sec)
nearest neighbour list constructed           ...    0.0 sec
Grid point re-assignment to atoms done       ...    0.0 sec
Grid point division into batches done        ...    0.0 sec
Reduced shell lists constructed in    0.0 sec

Total number of grid points                  ...    15306
Total number of batches                      ...      254
Average number of points per batch           ...       60
Average number of grid points per atom       ...      510
Average number of shells per batch           ...   110.88 (81.53%)
Average number of basis functions per batch  ...   247.91 (82.64%)
Average number of large shells per batch     ...    84.18 (75.92%)
Average number of large basis fcns per batch ...   184.97 (74.61%)
Maximum spatial batch extension              ...   5.05,  5.11,  6.17 au
Average spatial batch extension              ...   0.27,  0.27,  0.27 au

Overlap Fitting                  UseSFitting ... on
Constructing numerical overlap ... done (      0.0 sec)
Inverting numerical overlap    ... done (      0.0 sec)
Obtaining analytic overlap     ... done (      0.0 sec)
Final contraction and storage  ... done (      0.0 sec)


General Integration Accuracy     IntAcc      ...  4.010
Radial Grid Type                 RadialGrid  ... Gauss-Chebyshev
Angular Grid (max. acc.)         AngularGrid ... Lebedev-110
Angular grid pruning method      GridPruning ... 3 (G Style)
Weight generation scheme         WeightScheme... Becke
Basis function cutoff            BFCut       ...    1.0000e-11
Integration weight cutoff        WCut        ...    1.0000e-14
Grids for H and He will be reduced by one unit

# of grid points (after initial pruning)     ...  31144 (   0.0 sec)
# of grid points (after weights+screening)   ...  27912 (   0.0 sec)
nearest neighbour list constructed           ...    0.0 sec
Grid point re-assignment to atoms done       ...    0.0 sec
Grid point division into batches done        ...    0.0 sec
Reduced shell lists constructed in    0.1 sec

Total number of grid points                  ...    27912
Total number of batches                      ...      448
Average number of points per batch           ...       62
Average number of grid points per atom       ...      930
Average number of shells per batch           ...   108.98 (80.13%)
Average number of basis functions per batch  ...   242.91 (80.97%)
Average number of large shells per batch     ...    81.93 (75.18%)
Average number of large basis fcns per batch ...   180.00 (74.10%)
Maximum spatial batch extension              ...   5.16,  4.49,  4.56 au
Average spatial batch extension              ...   0.22,  0.23,  0.23 au

Overlap Fitting                  UseSFitting ... on
Constructing numerical overlap ... done (      0.0 sec)
Inverting numerical overlap    ... done (      0.0 sec)
Obtaining analytic overlap     ... done (      0.0 sec)
Final contraction and storage  ... done (      0.0 sec)

Time for X-Grid setup             =    0.520 sec


 ... the calculation is a CASSCF calculation -I'm leaving here GOOD LUCK!!!



           ************************************************************
           *        Program running with 8 parallel MPI-processes     *
           *              working on a common directory               *
           ************************************************************
-------------------------------------------------------------------------------
                              ORCA-CASSCF
-------------------------------------------------------------------------------

Setting up the integral package       ... done
Setting up the integral package (RI)  ... done
Building the CAS space                ... done (2 configurations for Mult=2)

SYSTEM-SPECIFIC SETTINGS:
Number of active electrons          ...    3
Number of active orbitals           ...    2
Total number of electrons           ...  103
Total number of orbitals            ...  300
Total number aux. functions         ... 1897

Determined orbital ranges:
   Internal       0 -   49 (  50 orbitals)
   Active        50 -   51 (   2 orbitals)
   External      52 -  299 ( 248 orbitals)
Number of rotation parameters      ...  12996

CI-STEP:
CI strategy                         ... General CI
Number of multiplicity blocks       ...    1
BLOCK  1 WEIGHT=   1.0000
  Multiplicity                      ...    2
  #(Configurations)                 ...    2
  #(CSFs)                           ...    2
  #(Roots)                          ...    2
    ROOT=0 WEIGHT=    0.500000
    ROOT=1 WEIGHT=    0.500000

  PrintLevel                        ...    1
  N(GuessMat)                       ...       512
  MaxDim(CI)                        ...        10
  MaxIter(CI)                       ...        64
  Energy Tolerance CI               ...  2.50e-09
  Residual Tolerance CI             ...  2.50e-09
  Shift(CI)                         ...  1.00e-04

INTEGRAL-TRANSFORMATION-STEP:
  Algorithm                         ... RI-MO

ORBITAL-IMPROVEMENT-STEP:
  Algorithm                         ... SuperCI(PT)
  Default Parametrization           ... CAYLEY
  Act-Act rotations                 ... depends on algorithm used

  Note: SuperCI(PT) will ignore FreezeIE, FreezeAct and FreezeGrad. In general Default settings are encouraged.
        In conjunction with ShiftUp, ShiftDn or GradScaling the performance of SuperCI(PT) is less optimal.  

  MaxRot                            ... 2.00e-01 
  Max. no of vectors (DIIS)         ... 15
  DThresh (cut-off) metric          ... 1.00e-06
  Switch step at gradient           ...  3.00e-02 
  Switch step at iteration          ...        50   
  Switch step to                    ... SuperCI(PT)    

SCF-SETTINGS:
  Incremental                       ... off
  RIJCOSX approximation             ... on
  UseFinalGrid                      ... on
  RI-JK approximation               ... off
  AO integral handling              ... DIRECT
  Integral Neglect Thresh           ...  2.50e-11
  Primitive cutoff TCut             ...  2.50e-12
  Energy convergence tolerance      ...  2.50e-08
  Orbital gradient convergence      ...  2.50e-04
  Max. number of iterations         ...        75  


PROPERTIES-SETTINGS:
  Spin orbit coupling               ... true
  GTensor                           ... true

FINAL ORBITALS:
  Active   Orbitals                 ... natural 
  Internal Orbitals                 ... canonical 
  External Orbitals                 ... canonical 

------------------
CAS-SCF ITERATIONS
------------------


MACRO-ITERATION   1: 
   --- Inactive Energy E0 = -574.59178016 Eh
CI-ITERATION   0: 
  -576.601305643   0.000000000000 (    0.01)
  -576.236485652   0.000000000000
   CI-PROBLEM SOLVED
   DENSITIES MADE

                 <<<<<<<<<<<<<<<<<<INITIAL CI STATE CHECK>>>>>>>>>>>>>>>>>>

BLOCK  1 MULT= 2 NROOTS= 2 
ROOT   0:  E=    -576.6013056427 Eh
      0.99989 [     1]: 21
ROOT   1:  E=    -576.2364856518 Eh  9.927 eV  80068.7 cm**-1
      0.99989 [     0]: 12

                 <<<<<<<<<<<<<<<<<<INITIAL CI STATE CHECK>>>>>>>>>>>>>>>>>>

   E(CAS)=  -576.418895647 Eh DE=     0.000000000
   --- Energy gap subspaces: Ext-Act = 3.131   Act-Int = 0.964
   N(occ)=  1.50000 1.50000
   ||g|| =      8.174245422 Max(G)=     2.454573072 Rot=296,22
   --- Orbital Update [SuperCI(PT)]
   --- Canonicalize Internal Space
   --- Canonicalize External Space
   --- SX_PT (Skipped TA=0 IT=0): ||X|| =      1.822661683 Max(X)(50,49) =      1.774809210 
   --- SFit(Active Orbitals)
   --- Failed to constrain active orbitals due to rotations:
       Rot( 50, 40) with OVL=0.164437
   --- SFit: squared overlap of the active orbitals QMAT=C*CT
                   0          1    
      0       0.413509  -0.006713
      1      -0.006713   0.995174

   --- Warning: Active Space composition changed by more than 50% in this iteration. 
                Maybe it will fix itself: Final composition should be checked

MACRO-ITERATION   2: 
   --- Inactive Energy E0 = -575.04119961 Eh
CI-ITERATION   0: 
  -577.052283564   0.000000000000 (    0.02)
  -576.842095607   0.000000000000
   CI-PROBLEM SOLVED
   DENSITIES MADE
   E(CAS)=  -576.947189586 Eh DE=    -0.528293939
   --- Energy gap subspaces: Ext-Act = 3.202   Act-Int = 1.028
   N(occ)=  1.50000 1.50000
   ||g|| =      0.882511948 Max(G)=     0.323561938 Rot=50,3
   --- Orbital Update [SuperCI(PT)]
   --- Canonicalize Internal Space
   --- Canonicalize External Space
   --- SX_PT (Skipped TA=0 IT=0): ||X|| =      0.597277642 Max(X)(50,49) =     -0.450757681 
   --- SFit(Active Orbitals)

MACRO-ITERATION   3: 
   --- Inactive Energy E0 = -575.18034164 Eh
CI-ITERATION   0: 
  -577.103027654   0.000000000000 (    0.01)
  -577.026442958   0.000000000000
   CI-PROBLEM SOLVED
   DENSITIES MADE
   E(CAS)=  -577.064735306 Eh DE=    -0.117545720
   --- Energy gap subspaces: Ext-Act = 3.176   Act-Int = 1.177
   N(occ)=  1.50000 1.50000
   ||g|| =      0.373509323 Max(G)=    -0.128578792 Rot=50,46
   --- Orbital Update [SuperCI(PT)]
   --- Canonicalize Internal Space
   --- Canonicalize External Space
   --- SX_PT (Skipped TA=0 IT=0): ||X|| =      0.272706351 Max(X)(50,48) =     -0.195393497 
   --- SFit(Active Orbitals)

MACRO-ITERATION   4: 
   --- Inactive Energy E0 = -574.89882395 Eh
CI-ITERATION   0: 
  -577.105365269   0.000000000000 (    0.00)
  -577.095974571   0.000000000000
   CI-PROBLEM SOLVED
   DENSITIES MADE
   E(CAS)=  -577.100669920 Eh DE=    -0.035934614
   --- Energy gap subspaces: Ext-Act = 3.216   Act-Int = 1.165
   N(occ)=  1.50000 1.50000
   ||g|| =      0.280130597 Max(G)=    -0.067787539 Rot=50,3
   --- Orbital Update [SuperCI(PT)]
   --- Canonicalize Internal Space
   --- Canonicalize External Space
   --- SX_PT (Skipped TA=0 IT=0): ||X|| =      0.084065501 Max(X)(50,47) =      0.038756035 
   --- SFit(Active Orbitals)

MACRO-ITERATION   5: 
   --- Inactive Energy E0 = -574.99566834 Eh
CI-ITERATION   0: 
  -577.108214670   0.000000000000 (    0.02)
  -577.103052141   0.000000000000
   CI-PROBLEM SOLVED
   DENSITIES MADE
   E(CAS)=  -577.105633405 Eh DE=    -0.004963485
   --- Energy gap subspaces: Ext-Act = 3.187   Act-Int = 1.210
   N(occ)=  1.50000 1.50000
   ||g|| =      0.161628330 Max(G)=     0.018175348 Rot=120,34
   --- Orbital Update [SuperCI(PT)]
   --- Canonicalize Internal Space
   --- Canonicalize External Space
   --- SX_PT (Skipped TA=0 IT=0): ||X|| =      0.043454555 Max(X)(50,47) =      0.016545176 
   --- SFit(Active Orbitals)

MACRO-ITERATION   6: 
   --- Inactive Energy E0 = -574.94390029 Eh
CI-ITERATION   0: 
  -577.109714938   0.000000000000 (    0.02)
  -577.104772675   0.000000000000
   CI-PROBLEM SOLVED
   DENSITIES MADE
   E(CAS)=  -577.107243807 Eh DE=    -0.001610401
   --- Energy gap subspaces: Ext-Act = 3.200   Act-Int = 1.191
   N(occ)=  1.50000 1.50000
   ||g|| =      0.030172935 Max(G)=     0.004227388 Rot=50,6
   --- Orbital Update [SuperCI(PT)]
   --- Canonicalize Internal Space
   --- Canonicalize External Space
   --- SX_PT (Skipped TA=0 IT=0): ||X|| =      0.012207112 Max(X)(50,47) =     -0.008261944 
   --- SFit(Active Orbitals)

MACRO-ITERATION   7: 
   --- Inactive Energy E0 = -574.94437432 Eh
CI-ITERATION   0: 
  -577.109747366   0.000000000000 (    0.08)
  -577.104993190   0.000000000000
   CI-PROBLEM SOLVED
   DENSITIES MADE
   E(CAS)=  -577.107370278 Eh DE=    -0.000126471
   --- Energy gap subspaces: Ext-Act = 3.199   Act-Int = 1.194
   N(occ)=  1.50000 1.50000
   ||g|| =      0.010679209 Max(G)=     0.002880444 Rot=50,3
   --- Orbital Update [SuperCI(PT)]
   --- Canonicalize Internal Space
   --- Canonicalize External Space
   --- SX_PT (Skipped TA=0 IT=0): ||X|| =      0.003603055 Max(X)(50,47) =     -0.001332966 
   --- SFit(Active Orbitals)

MACRO-ITERATION   8: 
   --- Inactive Energy E0 = -574.94357465 Eh
CI-ITERATION   0: 
  -577.109757242   0.000000000000 (    0.01)
  -577.105010717   0.000000000000
   CI-PROBLEM SOLVED
   DENSITIES MADE
   E(CAS)=  -577.107383980 Eh DE=    -0.000013702
   --- Energy gap subspaces: Ext-Act = 3.199   Act-Int = 1.193
   N(occ)=  1.50000 1.50000
   ||g|| =      0.005075783 Max(G)=     0.000744606 Rot=50,3
   --- Orbital Update [SuperCI(PT)]
   --- Canonicalize Internal Space
   --- Canonicalize External Space
   --- SX_PT (Skipped TA=0 IT=0): ||X|| =      0.001864962 Max(X)(62,50) =     -0.000657549 
   --- SFit(Active Orbitals)

MACRO-ITERATION   9: 
   --- Inactive Energy E0 = -574.94258810 Eh
CI-ITERATION   0: 
  -577.109760117   0.000000000000 (    0.01)
  -577.105019701   0.000000000000
   CI-PROBLEM SOLVED
   DENSITIES MADE
   E(CAS)=  -577.107389909 Eh DE=    -0.000005930
   --- Energy gap subspaces: Ext-Act = 3.199   Act-Int = 1.193
   N(occ)=  1.50000 1.50000
   ||g|| =      0.002472050 Max(G)=    -0.000494195 Rot=50,3
   --- Orbital Update [SuperCI(PT)]
   --- Canonicalize Internal Space
   --- Canonicalize External Space
   --- SX_PT (Skipped TA=0 IT=0): ||X|| =      0.001095658 Max(X)(62,50) =     -0.000424063 
   --- SFit(Active Orbitals)

MACRO-ITERATION  10: 
   --- Inactive Energy E0 = -574.94254455 Eh
CI-ITERATION   0: 
  -577.109768118   0.000000000000 (    0.04)
  -577.105016768   0.000000000000
   CI-PROBLEM SOLVED
   DENSITIES MADE
   E(CAS)=  -577.107392443 Eh DE=    -0.000002534
   --- Energy gap subspaces: Ext-Act = 3.199   Act-Int = 1.193
   N(occ)=  1.50000 1.50000
   ||g|| =      0.001707326 Max(G)=    -0.000337167 Rot=290,50
   --- Orbital Update [SuperCI(PT)]
   --- Canonicalize Internal Space
   --- Canonicalize External Space
   --- SX_PT (Skipped TA=0 IT=0): ||X|| =      0.000738178 Max(X)(62,50) =     -0.000277909 
   --- SFit(Active Orbitals)

MACRO-ITERATION  11: 
   --- Inactive Energy E0 = -574.94274892 Eh
CI-ITERATION   0: 
  -577.109771950   0.000000000000 (    0.01)
  -577.105015807   0.000000000000
   CI-PROBLEM SOLVED
   DENSITIES MADE
   E(CAS)=  -577.107393878 Eh DE=    -0.000001435
   --- Energy gap subspaces: Ext-Act = 3.199   Act-Int = 1.193
   N(occ)=  1.50000 1.50000
   ||g|| =      0.000878449 Max(G)=    -0.000183160 Rot=290,50
   --- Orbital Update [SuperCI(PT)]
   --- Canonicalize Internal Space
   --- Canonicalize External Space
   --- SX_PT (Skipped TA=0 IT=0): ||X|| =      0.000358319 Max(X)(62,50) =     -0.000132826 
Warning: badly conditioned DIIS matrix, 1 vectors out of 11 destroyed
   --- SFit(Active Orbitals)

MACRO-ITERATION  12: 
   --- Inactive Energy E0 = -574.94280198 Eh
CI-ITERATION   0: 
  -577.109775466   0.000000000000 (    0.01)
  -577.105013094   0.000000000000
   CI-PROBLEM SOLVED
   DENSITIES MADE
   E(CAS)=  -577.107394280 Eh DE=    -0.000000402
   --- Energy gap subspaces: Ext-Act = 3.199   Act-Int = 1.193
   N(occ)=  1.50000 1.50000
   ||g|| =      0.000493607 Max(G)=     0.000080094 Rot=50,3
   --- Orbital Update [SuperCI(PT)]
   --- Canonicalize Internal Space
   --- Canonicalize External Space
   --- SX_PT (Skipped TA=0 IT=0): ||X|| =      0.000159792 Max(X)(50,47) =     -0.000055584 
Warning: badly conditioned DIIS matrix, 1 vectors out of 11 destroyed
   --- SFit(Active Orbitals)

MACRO-ITERATION  13: 
   --- Inactive Energy E0 = -574.94282586 Eh
CI-ITERATION   0: 
  -577.109774702   0.000000000000 (    0.02)
  -577.105013929   0.000000000000
   CI-PROBLEM SOLVED
   DENSITIES MADE
   E(CAS)=  -577.107394315 Eh DE=    -0.000000035
   --- Energy gap subspaces: Ext-Act = 3.199   Act-Int = 1.193
   N(occ)=  1.50000 1.50000
   ||g|| =      0.000189528 Max(G)=     0.000034895 Rot=285,51
                     ---- THE CAS-SCF GRADIENT HAS CONVERGED ----
                            --- FINALIZING ORBITALS ---
                    ---- DOING ONE FINAL ITERATION FOR PRINTING ----
   --- Forming Natural Orbitals
   --- Canonicalize Internal Space
   --- Canonicalize External Space

MACRO-ITERATION  14: 
   --- Inactive Energy E0 = -574.94282586 Eh
   --- All densities will be recomputed
CI-ITERATION   0: 
  -577.109774702   0.000000000000 (    0.02)
  -577.105013929   0.000000000000
   CI-PROBLEM SOLVED
   DENSITIES MADE
   E(CAS)=  -577.107394315 Eh DE=     0.000000000
   --- Energy gap subspaces: Ext-Act = 0.212   Act-Int = 0.159
   N(occ)=  1.50000 1.50000
   ||g|| =      0.000189528 Max(G)=    -0.000055276 Rot=60,51
   --- Checking final active space composition 
   --- Failed to constrain active orbitals due to rotations:
       Rot( 50, 46) with OVL=0.427505
   --- SFit: squared overlap of the active orbitals QMAT=C*CT
                   0          1    
      0       0.009010  -0.012597
      1      -0.012597   0.981660

   --- Warning: Active space composition changed by more than 50% compared to guess. 
                This might have occured for a number of reasons e.g 
                   * NR/AugHess found negative eigenvalues and left the local basin
                   * active space includes barely correlated orbitals with occupations close to 0.0 or 2.0
                   * active space misses important orbitals
                   * invalid or linear dependent RI basis sets 

                Check the final orbitals and restart after re-rotating the orbitals.
                Alternatively, retry with modified convergence settings: 
                   * Check the design of the calculation
                   * Start with a better/different guess
                   * SuperCI_PT (default): Use smaller MaxRot. Current value = 0.200 
                                          (Levelshift/FreezeIE/FreezeAct/GradScaling do not apply to SuperCI_PT!)

                   * Try a different orbstep/switchstep. 

                   * NR/SOSCF: Delay switchstep with a smaller value of switchconv. Current value= 0.030 
                   * SuperCI/DIIS/NR: Use larger levelshifts (e.g. 2). Default = a minimum of 0.600
                   * SuperCI/DIIS/NR: Tighten freezeIE. Default = 0.950
                   * SuperCI/DIIS/NR: Reduce the stepsize with gradscaling. Default= 1.0 (no scaling)



--------------
CASSCF RESULTS
--------------

Final CASSCF energy       : -577.107394315 Eh  -15703.8906 eV

----------------
ORBITAL ENERGIES
----------------

  NO   OCC          E(Eh)            E(eV) 
   0   2.0000     -15.603404      -424.5902 
   1   2.0000     -15.574735      -423.8101 
   2   2.0000     -15.481653      -421.2772 
   3   2.0000     -15.474313      -421.0775 
   4   2.0000     -15.473305      -421.0500 
   5   2.0000     -11.253515      -306.2237 
   6   2.0000     -11.251436      -306.1671 
   7   2.0000     -11.250835      -306.1508 
   8   2.0000     -11.236639      -305.7645 
   9   2.0000     -11.233637      -305.6828 
  10   2.0000     -11.232336      -305.6474 
  11   2.0000      -2.962059       -80.6017 
  12   2.0000      -1.809027       -49.2261 
  13   2.0000      -1.807542       -49.1857 
  14   2.0000      -1.804511       -49.1032 
  15   2.0000      -1.209459       -32.9110 
  16   2.0000      -1.171898       -31.8890 
  17   2.0000      -1.083752       -29.4904 
  18   2.0000      -1.082044       -29.4439 
  19   2.0000      -1.066128       -29.0108 
  20   2.0000      -0.944841       -25.7104 
  21   2.0000      -0.942515       -25.6471 
  22   2.0000      -0.873730       -23.7754 
  23   2.0000      -0.784388       -21.3443 
  24   2.0000      -0.782831       -21.3019 
  25   2.0000      -0.745592       -20.2886 
  26   2.0000      -0.669287       -18.2122 
  27   2.0000      -0.668600       -18.1935 
  28   2.0000      -0.639074       -17.3901 
  29   2.0000      -0.637284       -17.3414 
  30   2.0000      -0.635596       -17.2954 
  31   2.0000      -0.610051       -16.6003 
  32   2.0000      -0.605069       -16.4648 
  33   2.0000      -0.571612       -15.5544 
  34   2.0000      -0.541306       -14.7297 
  35   2.0000      -0.536117       -14.5885 
  36   2.0000      -0.529910       -14.4196 
  37   2.0000      -0.511795       -13.9267 
  38   2.0000      -0.498283       -13.5590 
  39   2.0000      -0.494561       -13.4577 
  40   2.0000      -0.487400       -13.2628 
  41   2.0000      -0.475369       -12.9355 
  42   2.0000      -0.472054       -12.8452 
  43   2.0000      -0.452856       -12.3228 
  44   2.0000      -0.426611       -11.6087 
  45   2.0000      -0.423809       -11.5324 
  46   2.0000      -0.405584       -11.0365 
  47   2.0000      -0.330687        -8.9985 
  48   2.0000      -0.327108        -8.9011 
  49   2.0000      -0.295589        -8.0434 
  50   1.5000      -0.136937        -3.7262 
  51   1.5000      -0.132196        -3.5972 
  52   0.0000       0.079323         2.1585 
  53   0.0000       0.120097         3.2680 
  54   0.0000       0.127479         3.4689 
  55   0.0000       0.156135         4.2487 
  56   0.0000       0.210995         5.7415 
  57   0.0000       0.212501         5.7824 
  58   0.0000       0.213083         5.7983 
  59   0.0000       0.235724         6.4144 
  60   0.0000       0.238409         6.4875 
  61   0.0000       0.248418         6.7598 
  62   0.0000       0.249511         6.7895 
  63   0.0000       0.252162         6.8617 
  64   0.0000       0.263338         7.1658 
  65   0.0000       0.263939         7.1821 
  66   0.0000       0.268277         7.3002 
  67   0.0000       0.281208         7.6521 
  68   0.0000       0.282909         7.6984 
  69   0.0000       0.300674         8.1818 
  70   0.0000       0.303175         8.2498 
  71   0.0000       0.306852         8.3499 
  72   0.0000       0.314044         8.5456 
  73   0.0000       0.320128         8.7111 
  74   0.0000       0.344795         9.3823 
  75   0.0000       0.348805         9.4915 
  76   0.0000       0.353471         9.6184 
  77   0.0000       0.359305         9.7772 
  78   0.0000       0.399865        10.8809 
  79   0.0000       0.401671        10.9300 
  80   0.0000       0.426218        11.5980 
  81   0.0000       0.427871        11.6430 
  82   0.0000       0.439656        11.9636 
  83   0.0000       0.441468        12.0129 
  84   0.0000       0.445085        12.1114 
  85   0.0000       0.481765        13.1095 
  86   0.0000       0.483707        13.1623 
  87   0.0000       0.502562        13.6754 
  88   0.0000       0.517260        14.0754 
  89   0.0000       0.518455        14.1079 
  90   0.0000       0.568676        15.4745 
  91   0.0000       0.572875        15.5887 
  92   0.0000       0.612577        16.6691 
  93   0.0000       0.614158        16.7121 
  94   0.0000       0.661006        17.9869 
  95   0.0000       0.662054        18.0154 
  96   0.0000       0.690356        18.7855 
  97   0.0000       0.735881        20.0244 
  98   0.0000       0.743930        20.2434 
  99   0.0000       0.750832        20.4312 
 100   0.0000       0.763020        20.7628 
 101   0.0000       0.781613        21.2688 
 102   0.0000       0.782347        21.2888 
 103   0.0000       0.790409        21.5081 
 104   0.0000       0.812380        22.1060 
 105   0.0000       0.819792        22.3077 
 106   0.0000       0.843202        22.9447 
 107   0.0000       0.846979        23.0475 
 108   0.0000       0.853943        23.2370 
 109   0.0000       0.857449        23.3324 
 110   0.0000       0.864822        23.5330 
 111   0.0000       0.872629        23.7455 
 112   0.0000       0.875391        23.8206 
 113   0.0000       0.904894        24.6234 
 114   0.0000       0.909594        24.7513 
 115   0.0000       0.910806        24.7843 
 116   0.0000       0.919474        25.0201 
 117   0.0000       0.920927        25.0597 
 118   0.0000       0.924344        25.1527 
 119   0.0000       0.926006        25.1979 
 120   0.0000       0.928936        25.2776 
 121   0.0000       0.934729        25.4353 
 122   0.0000       0.951674        25.8964 
 123   0.0000       0.964781        26.2530 
 124   0.0000       0.969010        26.3681 
 125   0.0000       0.986643        26.8479 
 126   0.0000       0.997843        27.1527 
 127   0.0000       1.002304        27.2741 
 128   0.0000       1.009128        27.4598 
 129   0.0000       1.012697        27.5569 
 130   0.0000       1.023443        27.8493 
 131   0.0000       1.073518        29.2119 
 132   0.0000       1.077684        29.3253 
 133   0.0000       1.082851        29.4659 
 134   0.0000       1.119045        30.4508 
 135   0.0000       1.122263        30.5383 
 136   0.0000       1.132582        30.8191 
 137   0.0000       1.152075        31.3496 
 138   0.0000       1.165869        31.7249 
 139   0.0000       1.178621        32.0719 
 140   0.0000       1.187804        32.3218 
 141   0.0000       1.228707        33.4348 
 142   0.0000       1.250259        34.0213 
 143   0.0000       1.267076        34.4789 
 144   0.0000       1.287747        35.0414 
 145   0.0000       1.307086        35.5676 
 146   0.0000       1.310118        35.6501 
 147   0.0000       1.317934        35.8628 
 148   0.0000       1.350381        36.7457 
 149   0.0000       1.355625        36.8884 
 150   0.0000       1.394688        37.9514 
 151   0.0000       1.401758        38.1438 
 152   0.0000       1.404623        38.2217 
 153   0.0000       1.424026        38.7497 
 154   0.0000       1.434633        39.0384 
 155   0.0000       1.440565        39.1998 
 156   0.0000       1.466026        39.8926 
 157   0.0000       1.496115        40.7113 
 158   0.0000       1.516863        41.2759 
 159   0.0000       1.532700        41.7069 
 160   0.0000       1.545979        42.0682 
 161   0.0000       1.553533        42.2738 
 162   0.0000       1.559931        42.4479 
 163   0.0000       1.568109        42.6704 
 164   0.0000       1.588561        43.2269 
 165   0.0000       1.610367        43.8203 
 166   0.0000       1.624261        44.1984 
 167   0.0000       1.662090        45.2278 
 168   0.0000       1.684069        45.8258 
 169   0.0000       1.691674        46.0328 
 170   0.0000       1.705021        46.3960 
 171   0.0000       1.740414        47.3591 
 172   0.0000       1.750527        47.6343 
 173   0.0000       1.762234        47.9528 
 174   0.0000       1.810166        49.2571 
 175   0.0000       1.823681        49.6249 
 176   0.0000       1.834212        49.9114 
 177   0.0000       1.843620        50.1674 
 178   0.0000       1.876293        51.0565 
 179   0.0000       1.895632        51.5828 
 180   0.0000       1.914644        52.1001 
 181   0.0000       1.922510        52.3142 
 182   0.0000       1.931494        52.5586 
 183   0.0000       1.942621        52.8614 
 184   0.0000       1.988849        54.1193 
 185   0.0000       1.998071        54.3703 
 186   0.0000       2.018901        54.9371 
 187   0.0000       2.030001        55.2391 
 188   0.0000       2.036861        55.4258 
 189   0.0000       2.043393        55.6035 
 190   0.0000       2.052074        55.8398 
 191   0.0000       2.064315        56.1729 
 192   0.0000       2.080227        56.6059 
 193   0.0000       2.087781        56.8114 
 194   0.0000       2.092847        56.9492 
 195   0.0000       2.097892        57.0865 
 196   0.0000       2.114870        57.5485 
 197   0.0000       2.116913        57.6041 
 198   0.0000       2.120878        57.7120 
 199   0.0000       2.147300        58.4310 
 200   0.0000       2.153066        58.5879 
 201   0.0000       2.181845        59.3710 
 202   0.0000       2.187944        59.5370 
 203   0.0000       2.193396        59.6853 
 204   0.0000       2.195947        59.7548 
 205   0.0000       2.207327        60.0644 
 206   0.0000       2.209930        60.1352 
 207   0.0000       2.229658        60.6721 
 208   0.0000       2.232671        60.7541 
 209   0.0000       2.240560        60.9687 
 210   0.0000       2.244081        61.0645 
 211   0.0000       2.247827        61.1665 
 212   0.0000       2.257767        61.4370 
 213   0.0000       2.280675        62.0603 
 214   0.0000       2.295397        62.4609 
 215   0.0000       2.302902        62.6652 
 216   0.0000       2.326754        63.3142 
 217   0.0000       2.363440        64.3125 
 218   0.0000       2.367052        64.4108 
 219   0.0000       2.374885        64.6239 
 220   0.0000       2.381297        64.7984 
 221   0.0000       2.401739        65.3546 
 222   0.0000       2.421797        65.9004 
 223   0.0000       2.443741        66.4976 
 224   0.0000       2.455190        66.8091 
 225   0.0000       2.497810        67.9689 
 226   0.0000       2.510223        68.3066 
 227   0.0000       2.524896        68.7059 
 228   0.0000       2.525759        68.7294 
 229   0.0000       2.549597        69.3781 
 230   0.0000       2.566292        69.8323 
 231   0.0000       2.590973        70.5040 
 232   0.0000       2.606831        70.9355 
 233   0.0000       2.626385        71.4676 
 234   0.0000       2.679475        72.9122 
 235   0.0000       2.692570        73.2686 
 236   0.0000       2.702662        73.5432 
 237   0.0000       2.704377        73.5898 
 238   0.0000       2.722493        74.0828 
 239   0.0000       2.726505        74.1920 
 240   0.0000       2.743762        74.6616 
 241   0.0000       2.752964        74.9120 
 242   0.0000       2.760553        75.1185 
 243   0.0000       2.767307        75.3023 
 244   0.0000       2.798047        76.1387 
 245   0.0000       2.815770        76.6210 
 246   0.0000       2.816650        76.6449 
 247   0.0000       2.856795        77.7374 
 248   0.0000       2.882310        78.4316 
 249   0.0000       2.891796        78.6898 
 250   0.0000       2.927082        79.6500 
 251   0.0000       2.949225        80.2525 
 252   0.0000       2.962993        80.6271 
 253   0.0000       2.979396        81.0735 
 254   0.0000       2.981568        81.1326 
 255   0.0000       2.996202        81.5308 
 256   0.0000       3.006528        81.8118 
 257   0.0000       3.044463        82.8441 
 258   0.0000       3.053701        83.0954 
 259   0.0000       3.078405        83.7676 
 260   0.0000       3.085758        83.9677 
 261   0.0000       3.091564        84.1257 
 262   0.0000       3.097604        84.2901 
 263   0.0000       3.138648        85.4069 
 264   0.0000       3.145736        85.5998 
 265   0.0000       3.162841        86.0653 
 266   0.0000       3.207949        87.2927 
 267   0.0000       3.212394        87.4137 
 268   0.0000       3.225137        87.7605 
 269   0.0000       3.232478        87.9602 
 270   0.0000       3.263145        88.7947 
 271   0.0000       3.272603        89.0521 
 272   0.0000       3.288948        89.4968 
 273   0.0000       3.296644        89.7062 
 274   0.0000       3.320802        90.3636 
 275   0.0000       3.337109        90.8074 
 276   0.0000       3.347339        91.0857 
 277   0.0000       3.358624        91.3928 
 278   0.0000       3.371588        91.7456 
 279   0.0000       3.382661        92.0469 
 280   0.0000       3.399309        92.4999 
 281   0.0000       3.424409        93.1829 
 282   0.0000       3.432222        93.3955 
 283   0.0000       3.458624        94.1139 
 284   0.0000       3.464284        94.2680 
 285   0.0000       3.525083        95.9224 
 286   0.0000       3.552141        96.6587 
 287   0.0000       3.552928        96.6801 
 288   0.0000       3.576081        97.3101 
 289   0.0000       3.669106        99.8414 
 290   0.0000       3.718224       101.1780 
 291   0.0000       3.722726       101.3005 
 292   0.0000       3.802616       103.4744 
 293   0.0000       3.814423       103.7957 
 294   0.0000       3.831895       104.2712 
 295   0.0000       3.870241       105.3146 
 296   0.0000       3.915435       106.5444 
 297   0.0000       4.041286       109.9690 
 298   0.0000      24.943498       678.7471 
 299   0.0000      85.984843      2339.7665 


---------------------------------------------
CAS-SCF STATES FOR BLOCK  1 MULT= 2 NROOTS= 2
---------------------------------------------

ROOT   0:  E=    -577.1097747016 Eh
      0.99978 [     1]: 21
ROOT   1:  E=    -577.1050139288 Eh  0.130 eV   1044.9 cm**-1
      0.99978 [     0]: 12


--------------
DENSITY MATRIX
--------------

                   0          1    
      0       1.500000   0.000000
      1       0.000000   1.500000
Trace of the electron density:  3.000000
Extracting Spin-Density from 2-RDM (MULT=2) ... done

-------------------
SPIN-DENSITY MATRIX
-------------------

                   0          1    
      0       0.500000   0.000000
      1       0.000000   0.500000
Trace of the spin density:  1.000000

-----------------
ENERGY COMPONENTS
-----------------

One electron energy          :  -2659.957522004 Eh      -72381.1240 eV
Two electron energy          :   1153.219080666 Eh       31380.6865 eV
Nuclear repulsion energy     :    929.631047023 Eh       25296.5468 eV
                               ----------------
                                 -577.107394315

Kinetic energy               :    529.563536996 Eh       14410.1564 eV
Potential energy             :  -1106.670931312 Eh      -30114.0470 eV
Virial ratio                 :     -2.089779326 
                               ----------------
                                 -577.107394315

Core energy                  :   -574.942825861 Eh   -15644.9897 eV


----------------------------
LOEWDIN ORBITAL-COMPOSITIONS
----------------------------

                      0         1         2         3         4         5   
                 -15.60340 -15.57473 -15.48165 -15.47431 -15.47331 -11.25352
                   2.00000   2.00000   2.00000   2.00000   2.00000   2.00000
                  --------  --------  --------  --------  --------  --------
 1 N  s               0.0       0.0      99.7       0.0       0.0       0.0
 2 N  s               0.0       0.0       0.0       0.0      99.7       0.0
 3 N  s               0.0       0.0       0.0      99.7       0.0       0.0
 4 N  s               0.0      99.7       0.0       0.0       0.0       0.0
 5 N  s              99.7       0.0       0.0       0.0       0.0       0.0
12 C  s               0.0       0.0       0.0       0.0       0.0      99.5

                      6         7         8         9        10        11   
                 -11.25144 -11.25083 -11.23664 -11.23364 -11.23234  -2.96206
                   2.00000   2.00000   2.00000   2.00000   2.00000   2.00000
                  --------  --------  --------  --------  --------  --------
 0 Mo s               0.0       0.0       0.0       0.0       0.0      97.2
 1 N  pz              0.0       0.0       0.1       0.0       0.0       0.1
 1 N  px              0.0       0.0       0.0       0.0       0.0       0.5
 2 N  px              0.0       0.0       0.0       0.0       0.0       0.4
 2 N  py              0.0       0.0       0.0       0.0       0.0       0.2
 3 N  py              0.0       0.0       0.0       0.0       0.0       0.6
 4 N  pz              0.0       0.0       0.0       0.0       0.0       0.2
 5 N  pz              0.0       0.0       0.0       0.0       0.0       0.2
 9 C  s               0.0       0.0      99.5       0.0       0.0       0.0
15 C  s               0.0       0.0       0.0       0.0      99.5       0.0
18 C  s               0.0      99.5       0.0       0.0       0.0       0.0
21 C  s               0.0       0.0       0.0      99.5       0.0       0.0
24 C  s              99.5       0.0       0.0       0.0       0.0       0.0

                     12        13        14        15        16        17   
                  -1.80903  -1.80754  -1.80451  -1.20946  -1.17190  -1.08375
                   2.00000   2.00000   2.00000   2.00000   2.00000   2.00000
                  --------  --------  --------  --------  --------  --------
 0 Mo s               0.0       0.0       0.0       2.2       0.8       0.0
 0 Mo pz             14.6       0.1      83.1       3.0       2.8       0.5
 0 Mo px             67.8      18.8      10.8       0.2       0.2       4.4
 0 Mo py             14.9      78.5       4.0       0.1       0.2       0.5
 0 Mo dz2             0.0       0.0       0.0       1.7       1.7       0.3
 0 Mo dxz             0.0       0.0       0.0       0.4       0.4       2.0
 0 Mo dyz             0.0       0.0       0.0       0.3       0.3       0.1
 0 Mo dx2y2           0.0       0.0       0.0       0.0       0.0       1.5
 0 Mo dxy             0.0       0.0       0.0       0.0       0.0       0.8
 0 Mo f0              0.0       0.0       0.0       0.1       0.2       0.1
 0 Mo f+1             0.0       0.0       0.0       0.1       0.1       0.0
 0 Mo f-1             0.0       0.0       0.0       0.1       0.1       0.0
 1 N  s               0.5       0.0       0.0       0.6       0.0      21.9
 1 N  pz              0.2       0.0       0.0       0.1       0.0       2.0
 1 N  px              0.9       0.0       0.0       0.0       0.0       0.3
 2 N  s               0.1       0.3       0.0       0.6       0.0       4.4
 2 N  pz              0.0       0.0       0.0       0.1       0.0       0.3
 2 N  px              0.0       0.6       0.0       0.0       0.0       0.1
 2 N  py              0.1       0.2       0.0       0.0       0.0       0.1
 3 N  s               0.1       0.3       0.0       0.5       0.0       4.0
 3 N  pz              0.0       0.0       0.0       0.1       0.0       0.2
 3 N  py              0.4       0.6       0.0       0.0       0.0       0.2
 4 N  s               0.0       0.0       0.2      35.9       0.3       0.0
 4 N  pz              0.0       0.0       0.6       0.9       0.0       0.2
 4 N  px              0.0       0.0       0.0       0.1       0.0       1.3
 4 N  py              0.0       0.0       0.0       0.1       0.0       0.3
 5 N  s               0.0       0.0       0.2       0.3      47.5       0.0
 5 N  pz              0.0       0.0       0.4       0.0       1.1       0.0
 6 H  s               0.0       0.0       0.0       0.1      12.2       0.0
 6 H  pz              0.0       0.0       0.0       0.0       0.3       0.0
 6 H  px              0.0       0.0       0.0       0.0       1.2       0.0
 6 H  py              0.0       0.0       0.0       0.0       0.9       0.0
 7 H  s               0.0       0.0       0.0       0.1      12.2       0.0
 7 H  pz              0.0       0.0       0.0       0.0       0.7       0.0
 7 H  py              0.0       0.0       0.0       0.0       1.7       0.0
 8 H  s               0.0       0.0       0.0       0.1      12.0       0.0
 8 H  px              0.0       0.0       0.0       0.0       1.9       0.0
 8 H  py              0.0       0.0       0.0       0.0       0.5       0.0
 9 C  s               0.0       0.0       0.0       1.3       0.0      14.8
 9 C  pz              0.0       0.0       0.0       0.0       0.0       2.1
 9 C  px              0.0       0.0       0.0       0.9       0.0       0.4
 9 C  py              0.0       0.0       0.0       0.0       0.0       0.1
 9 C  dz2             0.0       0.0       0.0       0.0       0.0       0.2
10 H  s               0.0       0.0       0.0       0.2       0.0       2.6
10 H  py              0.0       0.0       0.0       0.0       0.0       0.1
11 H  s               0.0       0.0       0.0       0.2       0.0       2.5
11 H  py              0.0       0.0       0.0       0.0       0.0       0.2
12 C  s               0.0       0.0       0.0       7.4       0.1       4.4
12 C  pz              0.0       0.0       0.0       1.8       0.0       0.5
12 C  px              0.0       0.0       0.0       1.4       0.0       1.8
12 C  py              0.0       0.0       0.0       1.1       0.0       0.0
12 C  dxz             0.0       0.0       0.0       0.1       0.0       0.0
13 H  s               0.0       0.0       0.0       1.1       0.0       0.7
14 H  s               0.0       0.0       0.0       1.2       0.0       0.8
14 H  py              0.0       0.0       0.0       0.1       0.0       0.1
15 C  s               0.0       0.0       0.0       1.3       0.0       3.2
15 C  pz              0.0       0.0       0.0       0.0       0.0       0.3
15 C  px              0.0       0.0       0.0       0.2       0.0       0.1
15 C  py              0.0       0.0       0.0       0.7       0.0       0.1
16 H  s               0.0       0.0       0.0       0.2       0.0       0.5
17 H  s               0.0       0.0       0.0       0.2       0.0       0.6
18 C  s               0.0       0.0       0.0       7.5       0.1       1.5
18 C  pz              0.0       0.0       0.0       0.1       0.0       0.2
18 C  px              0.0       0.0       0.0       4.0       0.0       0.0
18 C  py              0.0       0.0       0.0       0.2       0.0       0.1
18 C  dx2y2           0.0       0.0       0.0       0.1       0.0       0.0
19 H  s               0.0       0.0       0.0       1.1       0.0       0.2
20 H  s               0.0       0.0       0.0       1.2       0.0       0.4
21 C  s               0.0       0.0       0.0       1.3       0.0       2.9
21 C  pz              0.0       0.0       0.0       0.3       0.0       0.1
21 C  px              0.0       0.0       0.0       0.1       0.0       0.1
21 C  py              0.0       0.0       0.0       0.5       0.0       0.2
22 H  s               0.0       0.0       0.0       0.2       0.0       0.5
23 H  s               0.0       0.0       0.0       0.2       0.0       0.5
24 C  s               0.0       0.0       0.0       7.4       0.1       0.9
24 C  pz              0.0       0.0       0.0       0.1       0.0       0.4
24 C  px              0.0       0.0       0.0       0.1       0.0       0.1
24 C  py              0.0       0.0       0.0       4.1       0.0       0.1
24 C  dx2y2           0.0       0.0       0.0       0.2       0.0       0.0
25 H  s               0.0       0.0       0.0       1.1       0.0       0.2
26 H  s               0.0       0.0       0.0       1.2       0.0       0.1
26 H  px              0.0       0.0       0.0       0.1       0.0       0.0
27 H  s               0.0       0.0       0.0       0.1       0.0       0.9
27 H  pz              0.0       0.0       0.0       0.0       0.0       0.1
28 H  s               0.0       0.0       0.0       0.1       0.0       5.2
28 H  pz              0.0       0.0       0.0       0.0       0.0       0.2
28 H  px              0.0       0.0       0.0       0.0       0.0       0.6
29 H  s               0.0       0.0       0.0       0.1       0.0       1.0
29 H  py              0.0       0.0       0.0       0.0       0.0       0.1

                     18        19        20        21        22        23   
                  -1.08204  -1.06613  -0.94484  -0.94251  -0.87373  -0.78439
                   2.00000   2.00000   2.00000   2.00000   2.00000   2.00000
                  --------  --------  --------  --------  --------  --------
 0 Mo s               0.0       3.0       0.0       0.0       1.3       0.0
 0 Mo pz              0.1       0.0       0.1       0.0       0.6       0.1
 0 Mo px              0.6       0.0       0.9       0.0       0.0       0.7
 0 Mo py              4.7       0.0       0.0       0.9       0.0       0.3
 0 Mo dz2             0.0       3.1       0.0       0.0       0.1       0.0
 0 Mo dxz             0.1       0.6       0.1       0.1       0.0       0.1
 0 Mo dyz             0.0       0.5       0.0       0.6       0.0       0.1
 0 Mo dx2y2           2.1       0.0       0.9       0.4       0.0       0.5
 0 Mo dxy             2.3       0.1       0.8       0.7       0.0       0.3
 0 Mo f0              0.0       0.1       0.1       0.0       0.0       0.0
 0 Mo f+1             0.0       0.1       0.1       0.0       0.0       0.0
 0 Mo f-1             0.2       0.0       0.0       0.2       0.0       0.0
 0 Mo f+2             0.0       0.1       0.0       0.0       0.1       0.0
 0 Mo f+3             0.0       0.3       0.0       0.0       0.1       0.0
 0 Mo f-3             0.0       0.7       0.0       0.0       0.2       0.0
 1 N  s               0.0      11.3      10.0       0.1       3.0       3.4
 1 N  pz              0.0       0.4       0.4       0.0       1.2       3.7
 1 N  px              0.0       0.2       0.6       0.0       0.0       0.0
 1 N  py              0.0       0.0       0.0       0.0       0.0       0.3
 2 N  s              14.4      14.2       3.5       6.4       3.2       0.6
 2 N  pz              1.1       0.5       0.1       0.3       1.0       0.6
 2 N  px              0.3       0.2       0.0       0.0       0.2       0.1
 2 N  py              0.2       0.2       0.2       0.4       0.1       0.0
 3 N  s              15.8      13.4       1.4       8.3       3.4       1.0
 3 N  pz              0.7       0.2       0.1       0.6       1.0       0.8
 3 N  px              0.2       0.1       0.0       0.0       0.2       0.2
 3 N  py              0.9       0.5       0.0       0.2       0.1       0.1
 4 N  s               0.0       4.0       0.0       0.0       7.3       0.0
 4 N  pz              0.0       0.4       1.1       0.1       0.2       1.0
 4 N  px              0.4       0.0       7.2       1.8       0.0       3.0
 4 N  py              1.4       0.0       1.3       7.9       0.0       3.5
 4 N  dx2y2           0.0       0.0       0.0       0.2       0.0       0.0
 9 C  s               0.0       4.0       1.9       0.0       5.0      11.4
 9 C  pz              0.0       1.8       6.0       0.1       3.0       1.7
 9 C  px              0.0       0.0       2.7       0.1       0.1       3.3
 9 C  py              0.0       0.1       0.1       0.0       0.0       0.3
 9 C  dz2             0.0       0.1       0.2       0.0       0.1       0.0
10 H  s               0.0       0.7       0.5       0.0       2.2       6.9
10 H  px              0.0       0.0       0.0       0.0       0.1       0.1
10 H  py              0.0       0.0       0.0       0.0       0.1       0.4
11 H  s               0.0       0.7       0.5       0.0       1.9       7.4
11 H  px              0.0       0.0       0.0       0.0       0.1       0.1
11 H  py              0.0       0.1       0.0       0.0       0.1       0.6
12 C  s               0.0       0.1      17.6       0.9       2.4       3.8
12 C  pz              0.0       0.0       0.1       0.0       0.9       0.4
12 C  px              0.0       1.6       0.4       0.1       3.6       6.5
12 C  py              0.0       0.2       0.0       0.4       0.5       0.4
12 C  dxz             0.0       0.1       0.0       0.0       0.1       0.1
12 C  dx2y2           0.0       0.0       0.0       0.0       0.0       0.1
13 H  s               0.0       0.0       5.0       0.1       1.2       1.7
13 H  pz              0.0       0.0       0.5       0.0       0.1       0.1
14 H  s               0.0       0.0       4.6       0.7       1.1       3.7
14 H  py              0.0       0.0       0.5       0.1       0.1       0.3
15 C  s              10.1       5.6       0.6       1.0       4.9       1.9
15 C  pz              1.1       2.0       2.0       4.1       2.6       0.4
15 C  px              0.4       0.2       0.1       0.1       0.5       0.0
15 C  py              0.3       0.0       1.1       1.4       0.2       0.9
16 H  s               1.7       0.9       0.1       0.4       1.8       1.8
16 H  py              0.1       0.1       0.0       0.0       0.1       0.1
17 H  s               1.7       1.0       0.2       0.3       2.1       0.9
17 H  px              0.2       0.1       0.0       0.0       0.2       0.1
18 C  s               3.1       0.0       8.0       9.9       2.9       1.4
18 C  pz              0.4       0.4       0.0       0.0       0.0       0.0
18 C  px              0.0       0.7       0.2       0.0       3.3       0.2
18 C  py              1.2       1.1       0.1       0.5       1.6       2.9
18 C  dx2y2           0.0       0.1       0.0       0.0       0.2       0.0
19 H  s               0.5       0.0       1.9       3.0       1.5       0.4
19 H  pz              0.1       0.0       0.2       0.3       0.1       0.0
20 H  s               0.5       0.0       2.9       2.0       1.4       1.8
20 H  px              0.0       0.0       0.1       0.1       0.0       0.1
20 H  py              0.0       0.0       0.1       0.1       0.1       0.1
21 C  s              10.9       5.2       0.2       1.4       5.0       3.7
21 C  pz              0.5       1.6       1.1       7.5       2.9       0.1
21 C  px              0.6       0.3       0.0       0.0       0.1       0.2
21 C  py              0.8       0.3       0.0       0.0       0.4       1.2
21 C  dxz             0.0       0.0       0.0       0.1       0.0       0.0
21 C  dyz             0.0       0.1       0.0       0.2       0.1       0.0
22 H  s               1.9       1.0       0.0       0.4       2.1       2.5
22 H  py              0.2       0.1       0.0       0.0       0.2       0.2
23 H  s               1.8       0.9       0.1       0.3       1.9       1.7
23 H  px              0.2       0.1       0.0       0.0       0.2       0.2
24 C  s               3.7       0.0       1.5      16.5       2.9       0.3
24 C  pz              1.2       0.8       0.1       0.0       0.1       0.5
24 C  px              0.0       0.0       0.5       0.0       0.1       0.0
24 C  py              0.3       1.3       0.0       0.3       4.8       1.1
24 C  dx2y2           0.0       0.0       0.0       0.0       0.1       0.0
25 H  s               0.6       0.0       0.6       4.4       1.4       0.2
[...]
  5 N      7.2896     7.0000    -0.2896     3.2551     3.2539     0.0011
  6 H      0.8380     1.0000     0.1620     0.9609     0.9598     0.0011
  7 H      0.8387     1.0000     0.1613     0.9614     0.9604     0.0010
  8 H      0.8417     1.0000     0.1583     0.9651     0.9637     0.0014
  9 C      5.7912     6.0000     0.2088     3.9221     3.9198     0.0022
 10 H      0.9880     1.0000     0.0120     0.9671     0.9668     0.0003
 11 H      0.9911     1.0000     0.0089     0.9632     0.9630     0.0002
 12 C      5.8531     6.0000     0.1469     3.7984     3.7969     0.0015
 13 H      0.9707     1.0000     0.0293     0.9809     0.9807     0.0003
 14 H      0.9538     1.0000     0.0462     0.9854     0.9853     0.0001
 15 C      5.7854     6.0000     0.2146     3.9211     3.9194     0.0018
 16 H      0.9944     1.0000     0.0056     0.9646     0.9643     0.0003
 17 H      0.9911     1.0000     0.0089     0.9665     0.9663     0.0002
 18 C      5.8613     6.0000     0.1387     3.7953     3.7939     0.0014
 19 H      0.9723     1.0000     0.0277     0.9809     0.9805     0.0004
 20 H      0.9484     1.0000     0.0516     0.9858     0.9858     0.0001
 21 C      5.7868     6.0000     0.2132     3.9239     3.9220     0.0019
 22 H      0.9908     1.0000     0.0092     0.9694     0.9690     0.0004
 23 H      0.9862     1.0000     0.0138     0.9632     0.9631     0.0001
 24 C      5.8575     6.0000     0.1425     3.7850     3.7835     0.0015
 25 H      0.9746     1.0000     0.0254     0.9807     0.9804     0.0003
 26 H      0.9558     1.0000     0.0442     0.9862     0.9861     0.0001
 27 H      0.8918     1.0000     0.1082     0.9665     0.9634     0.0031
 28 H      0.8905     1.0000     0.1095     0.9647     0.9614     0.0033
 29 H      0.8911     1.0000     0.1089     0.9616     0.9588     0.0028

  Mayer bond orders larger than 0.100000
B(  0-Mo,  1-N ) :   0.9895 B(  0-Mo,  2-N ) :   0.9647 B(  0-Mo,  3-N ) :   0.9501 
B(  0-Mo,  4-N ) :   0.3384 B(  0-Mo,  5-N ) :   0.3593 B(  1-N ,  9-C ) :   0.9752 
B(  1-N , 28-H ) :   0.9385 B(  2-N , 15-C ) :   0.9802 B(  2-N , 29-H ) :   0.9372 
B(  3-N , 21-C ) :   0.9786 B(  3-N , 27-H ) :   0.9421 B(  4-N , 12-C ) :   0.8562 
B(  4-N , 18-C ) :   0.8510 B(  4-N , 24-C ) :   0.8522 B(  5-N ,  6-H ) :   0.9608 
B(  5-N ,  7-H ) :   0.9612 B(  5-N ,  8-H ) :   0.9611 B(  9-C , 10-H ) :   0.9712 
B(  9-C , 11-H ) :   0.9601 B(  9-C , 12-C ) :   1.0472 B( 12-C , 13-H ) :   0.9741 
B( 12-C , 14-H ) :   0.9742 B( 15-C , 16-H ) :   0.9582 B( 15-C , 17-H ) :   0.9668 
B( 15-C , 18-C ) :   1.0506 B( 18-C , 19-H ) :   0.9745 B( 18-C , 20-H ) :   0.9737 
B( 21-C , 22-H ) :   0.9723 B( 21-C , 23-H ) :   0.9622 B( 21-C , 24-C ) :   1.0429 
B( 24-C , 25-H ) :   0.9723 B( 24-C , 26-H ) :   0.9738 


-------------------------------------------------------------
 Forming the transition density       ... done in 0.032708 sec
-------------------------------------------------------------



==========================================
CASSCF UV, CD spectra and dipole moments
==========================================
-------------------
ABSORPTION SPECTRUM
-------------------

Center of mass           = ( 13.8757, 30.0350, 26.9124)
Nuclear contribution to the dipole moment =    13.082352,   11.342275,   51.342754 au

Calculating the dipole integrals                  ... done
Transforming integrals                            ... done
Calculating the Linear Momentum integrals         ... done
Transforming integrals                            ... done
Calculating the Angular Momentum integrals        ... done
Transforming integrals                            ... done

Ground state mult:    2
Ground state block:   0
Ground state root:    0


------------------------------------------------------------------------------------------
                                ABSORPTION SPECTRUM
------------------------------------------------------------------------------------------
  States           Energy   Wavelength   fosc          T2        TX         TY        TZ  
                   (cm-1)     (nm)                   (D**2)      (D)        (D)       (D) 
------------------------------------------------------------------------------------------
  0( 0)-> 1( 0) 2    1044.9   9570.6   0.000010569   0.02148   0.02572  -0.14125   0.02944
------------------------------------------------------------------------------------------



------------------------------------------------------------------------------
                             CD SPECTRUM
------------------------------------------------------------------------------
      States        Energy   Wavelength   R*T        RX        RY        RZ   
                    (cm-1)      (nm)   (1e40*sgs)   (au)      (au)      (au)  
------------------------------------------------------------------------------
  0( 0)-> 1( 0) 2    1044.9   9570.6     0.29554   0.09314   0.09295   0.41872
------------------------------------------------------------------------------

------------------------------------------------------------------------------
                                 DIPOLE MOMENTS
------------------------------------------------------------------------------
  Root  Block           TX        TY        TZ           |T|
                      (Debye)   (Debye)   (Debye)      (Debye)
------------------------------------------------------------------------------
    0    0           -1.29655  -0.56286  -1.92947      2.39180

==============================
CASSCF RELATIVISTIC PROPERTIES
==============================

Order    0    0 
MS *2    1   -1 
Mult     2    2 
irrep    0    0 

Calculating SOCInts
Loading the effective charges         ... done
Entering the SOC calc. section        ... 
------------------------------------------------------------------------------
                         ORCA SPIN-ORBIT COUPLING CALCULATION
------------------------------------------------------------------------------

GBW file                                    ... Mo-TAEA-NH3_0_2_casscf-3-2-2_def2-tzvp_def2-svp.epr.gbw
Input density                               ... Mo-TAEA-NH3_0_2_casscf-3-2-2_def2-tzvp_def2-svp.epr.scfp
Output integrals                            ... Mo-TAEA-NH3_0_2_casscf-3-2-2_def2-tzvp_def2-svp.epr
Operator type                               ... Mean-field/Effective potential
   One-Electron Terms                       ... 1
   Coulomb Contribution                     ... 3
   Exchange Contribution                    ... 3
   Correlation Contribution                 ... 0
   Maximum number of centers                ... 4
Warning (ORCA_SOC): the V**-1 matrix does not seem to exist - doing it now
Calculating two index integrals             ... done
Cholesky decomposition                      ... done
Making three index integrals                ...
  Angular momenta (0,0)
  Angular momenta (0,1)
  Angular momenta (0,2)
  Angular momenta (0,3)
  Angular momenta (0,4)
  Angular momenta (1,1)
  Angular momenta (1,2)
  Angular momenta (1,3)
  Angular momenta (1,4)
  Angular momenta (2,2)
  Angular momenta (2,3)
  Angular momenta (2,4)
  Angular momenta (3,3)
  Angular momenta (3,4)
  Angular momenta (4,4)
                                                done
Making fit coefficients                     ... done
Making SOC integrals                        ... done
One-Center Exchange (+SOO)                  ... done
   .... returned from the SOC program

----------------------------------
QDPT WITH CASSCF DIAGONAL ENERGIES
----------------------------------

----------------------------------------------------------------------------
                        CALCULATED REDUCED SOC MATRIX ELEMENTS              
----------------------------------------------------------------------------
        Block               Root         <I|Lx S |J> <I|Ly S |J> <I|Lz S |J>
 I(Mult)     J(Mult)      I        J        cm-1        cm-1        cm-1    
----------------------------------------------------------------------------
 0( 2)       0( 2)        0        0         0.00        0.00        0.00  
 0( 2)       0( 2)        1        0        -5.18       -5.04      -22.52  
 0( 2)       0( 2)        1        1        -0.00        0.00        0.00  
----------------------------------------------------------------------------
*************************************
Doing QDPT with ONLY SOC!
*************************************

Lowest eigenvalue of the SOC matrix:    -577.10977531 Eh
Energy stabilization:    -0.13379 cm-1
Eigenvalues:     cm-1         eV      Boltzmann populations at T =  300.000 K
   0:            0.00        0.0000       4.97e-01
   1:            0.00        0.0000       4.97e-01
   2:         1045.14        0.1296       3.31e-03
   3:         1045.14        0.1296       3.31e-03

The threshold for printing is 0.0100
Eigenvectors:
                         Weight      Real          Image    : Block Root    Spin   Ms
 STATE   0:       0.0000
                         0.906368    -0.046699     0.950888 :     0    0  1/2  1/2
                         0.093504    -0.223795     0.208374 :     0    0  1/2 -1/2

 STATE   1:       0.0000
                         0.093504     0.213305     0.219101 :     0    0  1/2  1/2
                         0.906368     0.000000    -0.952034 :     0    0  1/2 -1/2

 STATE   2:    1045.1364
                         0.999872    -0.998646    -0.050785 :     0    1  1/2  1/2

 STATE   3:    1045.1364
                         0.999872    -0.999936     0.000000 :     0    1  1/2 -1/2


Center of nuclear charge           = ( 14.0027, 30.1451, 27.4109)

--------------------------------------------
           ZERO-FIELD SPLITTING
(2ND ORDER SPIN-ORBIT COUPLING CONTRIBUTION)
--------------------------------------------

# The ground state multiplicity is smaller than 3. No D-tensor.


  *** Storing geometry in DTensor axis frame as Mo-TAEA-NH3_0_2_casscf-3-2-2_def2-tzvp_def2-svp.epr.CAS_DTensor_HEFF_rotated.xyz  ***

--------------
KRAMERS PAIR 1
--------------

Matrix elements Re<1|S|1>    0.208591   0.203073   0.406496 
Matrix elements Re<1|S|2>   -0.453615   0.068967   0.198379 
Matrix elements Im<1|S|2>   -0.024514   0.451534  -0.213060 
Matrix elements Re<1|L|1>    0.004015   0.004001   0.018042 
Matrix elements Re<1|L|2>    0.000879   0.000876   0.003949 
Matrix elements Im<1|L|2>   -0.000944  -0.000940  -0.004241 

-------------------
ELECTRONIC G-MATRIX
-------------------

g-matrix:
   -1.814808     0.100058     0.843362 
    0.277938    -1.806349     0.821236 
    0.802335     0.861712     1.663953 

g-factors:
    2.001806     2.001807     2.042044 iso =     2.015219

g-shifts:
   -0.000513    -0.000513     0.039724 iso =     0.012900
 Orientation: 
  X          -0.9337336    0.2856719    0.2157155
  Y          -0.2406730   -0.9470715    0.2124431
  Z           0.2649870    0.1464484    0.9530660

Notes:  (1) The g-matrix conforms to the "BgS" spin Hamiltonian convention.
        (2) The principal values are square roots of the eigenvalues of g*gT
        (3) Orientations are eigenvectors of g*gT written as column vectors
        (4) Tensor is right-handed


-----------------------------------
ELECTRONIC G-MATRIX: S contribution
-----------------------------------

g-matrix:
   -1.816565     0.098171     0.835333 
    0.276186    -1.808229     0.813235 
    0.794437     0.853230     1.627869 

g-factors:
    2.001807     2.001807     2.002319 iso =     2.001978

g-shifts:
   -0.000513    -0.000513     0.000000 iso =    -0.000342
 Orientation: 
  X           0.6987349    0.6809980    0.2191148
  Y          -0.7153805    0.6653766    0.2133183
  Z          -0.0005246   -0.3058034    0.9520945

Notes:  (1) The g-matrix conforms to the "BgS" spin Hamiltonian convention.
        (2) The principal values are square roots of the eigenvalues of g*gT
        (3) Orientations are eigenvectors of g*gT written as column vectors
        (4) Tensor is right-handed


-----------------------------------
ELECTRONIC G-MATRIX: L contribution
-----------------------------------

g-matrix:
    0.001757     0.001887     0.008029 
    0.001751     0.001881     0.008002 
    0.007898     0.008482     0.036083 

g-factors:
    0.000000     0.000000     0.039725 iso =     0.013242

g-shifts:
   -2.002319    -2.002319    -1.962594 iso =    -1.989078
 Orientation: 
  X           0.0158128   -0.9770780   -0.2122933
  Y          -0.9768997    0.0301565   -0.2115600
  Z           0.2131126    0.2107346   -0.9540304

Notes:  (1) The g-matrix conforms to the "BgS" spin Hamiltonian convention.
        (2) The principal values are square roots of the eigenvalues of g*gT
        (3) Orientations are eigenvectors of g*gT written as column vectors
        (4) Tensor is right-handed


-------------------------------------------------------------------------------------------
                       TRANSITION MAGNETIC DIPOLE CONTRIBUTIONS  
       (theta is the angle between the gz component of the lowest and the nth Kramers pairs)
-------------------------------------------------------------------------------------------
Ms States     Energy        M2            MX             MY            MZ            theta  
              (cm-1)      (au**2)        (au)           (au)          (au)           (Deg)  
-------------------------------------------------------------------------------------------
 0  0         0.00     0.00035762     0.00401467     0.00400080     0.01804161     180.00
 0  1         0.00     0.00003689     0.00128947     0.00128502     0.00579480     180.00
 1  1         0.00     0.00035762     0.00401467     0.00400080     0.01804161     180.00

----------------------------------------------
ELECTRONIC G-MATRIX FROM EFFECTIVE HAMILTONIAN
----------------------------------------------
Spin multiplicity = 2

g-matrix:
    2.003679     0.001823     0.008136 
    0.001865     2.003623     0.008106 
    0.008411     0.008189     2.038355 

g-factors:
    2.001806     2.001807     2.042044 iso =     2.015219

g-shifts:
   -0.000513    -0.000513     0.039724 iso =     0.012900
 Orientation: 
  X          -0.9337336    0.2856720    0.2157155
  Y          -0.2406731   -0.9470715    0.2124431
  Z           0.2649870    0.1464484    0.9530660

Notes:  (1) The g-matrix conforms to the "BgS" spin Hamiltonian convention.
        (2) The principal values are square roots of the eigenvalues of g*gT
        (3) Orientations are eigenvectors of g*gT written as column vectors
        (4) Tensor is right-handed


--------------------------------
SOC CORRECTED EXCITATION SPECTRA
--------------------------------

Dim(SO)                  = 4
Number of initial states = -1
Center of mass           = ( 13.8757, 30.0350, 26.9124)
Nuclear contribution to the dipole moment =    13.082352,   11.342275,   51.342754 au

Calculating the dipole integrals          ... done

------------------------------------------------------------------------------------------
                    SOC CORRECTED ABSORPTION SPECTRUM
------------------------------------------------------------------------------------------
  States   Energy   Wavelength   fosc          T2       |TX|       |TY|      |TZ| 
           (cm-1)     (nm)                   (D**2)      (D)        (D)       (D) 
------------------------------------------------------------------------------------------
 0  1       0.0      0.0   0.000000000   0.00000   0.00000   0.00000   0.00000
 0  2    1045.1   9568.1   0.000004760   0.01947   0.02448   0.13448   0.02803
 0  3    1045.1   9568.1   0.000000491   0.00201   0.00786   0.04319   0.00900
 1  2    1045.1   9568.1   0.000000491   0.00201   0.00786   0.04319   0.00900
 1  3    1045.1   9568.1   0.000004760   0.01947   0.02448   0.13448   0.02803

------------------------------------------------------------------------------
                           SOC CORRECTED DIPOLE MOMENTS
------------------------------------------------------------------------------
      TX        TY        TZ           |T|
   (Debye)   (Debye)   (Debye)      (Debye)
------------------------------------------------------------------------------
  33.25270  28.82977 130.50291    137.72402

--------------
CASSCF TIMINGS
--------------

Total time                       ...      187.2 sec
Sum of individual times          ...      370.9 sec (198.1%)

Calculation of AO operators
   F(Core) operator              ...       70.0 sec ( 37.4%)
   G(Act) operator               ...       64.8 sec ( 34.6%)
   J(AO) operators               ...        0.0 sec (  0.0%)
Calculation of MO transformed quantities
   J(MO) operators               ...       13.0 sec (  7.0%)
   (pq|rs) integrals             ...        0.0 sec (  0.0%)
   AO->MO one electron integrals ...        0.1 sec (  0.0%)
Configuration interaction steps
   CI-setup phase                ...        0.0 sec (  0.0%)
   CI-solution phase             ...        1.7 sec (  0.9%)
   Generation of densities       ...        0.2 sec (  0.1%)
Orbital improvement steps
   Orbital gradient              ...        0.1 sec (  0.0%)
   O(1) converger                ...        0.6 sec (  0.3%)
Properties                       ...      187.2 sec (100.0%)
   SOC integral calculation      ...       33.2 sec ( 17.7%)
   SSC RMEs (incl. integrals)    ...        0.0 sec (  0.0%)
   SOC RMEs                      ...        0.0 sec (  0.0%)

-------------------------   --------------------
FINAL SINGLE POINT ENERGY      -577.107394315200
-------------------------   --------------------


                            ***************************************
                            *     ORCA property calculations      *
                            ***************************************

                                    ---------------------
                                    Active property flags
                                    ---------------------
   (+) Dipole Moment


------------------------------------------------------------------------------
                       ORCA ELECTRIC PROPERTIES CALCULATION
------------------------------------------------------------------------------

Dipole Moment Calculation                       ... on
Quadrupole Moment Calculation                   ... off
Polarizability Calculation                      ... off
GBWName                                         ... Mo-TAEA-NH3_0_2_casscf-3-2-2_def2-tzvp_def2-svp.epr.gbw
Electron density file                           ... Mo-TAEA-NH3_0_2_casscf-3-2-2_def2-tzvp_def2-svp.epr.scfp
The origin for moment calculation is the CENTER OF MASS  = (13.875726, 30.034957 26.912410)

-------------
DIPOLE MOMENT
-------------
                                X             Y             Z
Electronic contribution:    -13.63292     -11.56974     -52.06790
Nuclear contribution   :     13.08235      11.34227      51.34275
                        -----------------------------------------
Total Dipole Moment    :     -0.55057      -0.22746      -0.72515
                        -----------------------------------------
Magnitude (a.u.)       :      0.93846
Magnitude (Debye)      :      2.38538



--------------------
Rotational spectrum 
--------------------
 
Rotational constants in cm-1:     0.029881     0.022964     0.022877 
Rotational constants in MHz :   895.812205   688.437631   685.832232 

 Dipole components along the rotational axes: 
x,y,z [a.u.] :    -0.867960    -0.073552     0.349203 
x,y,z [Debye]:    -2.206180    -0.186954     0.887604 

 

Timings for individual modules:

Sum of individual times         ...      200.220 sec (=   3.337 min)
GTO integral calculation        ...        4.044 sec (=   0.067 min)   2.0 %
SCF iterations                  ...        2.983 sec (=   0.050 min)   1.5 %
CASSCF iterations               ...      193.193 sec (=   3.220 min)  96.5 %
                             ****ORCA TERMINATED NORMALLY****
TOTAL RUN TIME: 0 days 0 hours 3 minutes 22 seconds 715 msec
