
                                 *****************
                                 * O   R   C   A *
                                 *****************

           --- An Ab Initio, DFT and Semiempirical electronic structure package ---

                  #######################################################
                  #                        -***-                        #
                  #          Department of theory and spectroscopy      #
                  #               Directorship: Frank Neese             #
                  #        Max Planck Institute fuer Kohlenforschung    #
                  #                Kaiser Wilhelm Platz 1               #
                  #                 D-45470 Muelheim/Ruhr               #
                  #                      Germany                        #
                  #                                                     #
                  #                  All rights reserved                #
                  #                        -***-                        #
                  #######################################################


                         Program Version 4.2.0 -  RELEASE  -


 With contributions from (in alphabetic order):
   Daniel Aravena         : Magnetic Suceptibility
   Michael Atanasov       : Ab Initio Ligand Field Theory (pilot matlab implementation)
   Alexander A. Auer      : GIAO ZORA, VPT2
   Ute Becker             : Parallelization
   Giovanni Bistoni       : ED, misc. LED, open-shell LED, HFLED
   Martin Brehm           : Molecular dynamics
   Dmytro Bykov           : SCF Hessian
   Vijay G. Chilkuri      : MRCI spin determinant printing, contributions to CSF-ICE
   Dipayan Datta          : RHF DLPNO-CCSD density
   Achintya Kumar Dutta   : EOM-CC, STEOM-CC
   Dmitry Ganyushin       : Spin-Orbit,Spin-Spin,Magnetic field MRCI
   Miquel Garcia          : C-PCM Hessian, Gaussian charge scheme
   Yang Guo               : DLPNO-NEVPT2, CIM, IAO-localization
   Andreas Hansen         : Spin unrestricted coupled pair/coupled cluster methods
   Benjamin Helmich-Paris : CASSCF linear response (MC-RPA)
   Lee Huntington         : MR-EOM, pCC
   Robert Izsak           : Overlap fitted RIJCOSX, COSX-SCS-MP3, EOM
   Christian Kollmar      : KDIIS, OOCD, Brueckner-CCSD(T), CCSD density
   Simone Kossmann        : Meta GGA functionals, TD-DFT gradient, OOMP2, MP2 Hessian
   Martin Krupicka        : AUTO-CI
   Lucas Lang             : DCDCAS
   Dagmar Lenk            : GEPOL surface, SMD
   Dimitrios Liakos       : Extrapolation schemes; Compound Job, initial MDCI parallelization
   Dimitrios Manganas     : Further ROCIS development; embedding schemes
   Dimitrios Pantazis     : SARC Basis sets
   Taras Petrenko         : DFT Hessian,TD-DFT gradient, ASA, ECA, R-Raman, ABS, FL, XAS/XES, NRVS
   Peter Pinski           : DLPNO-MP2, DLPNO-MP2 Gradient
   Christoph Reimann      : Effective Core Potentials
   Marius Retegan         : Local ZFS, SOC
   Christoph Riplinger    : Optimizer, TS searches, QM/MM, DLPNO-CCSD(T), (RO)-DLPNO pert. Triples
   Tobias Risthaus        : Range-separated hybrids, TD-DFT gradient, RPA, STAB
   Michael Roemelt        : Original ROCIS implementation
   Masaaki Saitow         : Open-shell DLPNO-CCSD energy and density
   Barbara Sandhoefer     : DKH picture change effects
   Avijit Sen             : IP-ROCIS
   Kantharuban Sivalingam : CASSCF convergence, NEVPT2, FIC-MRCI
   Bernardo de Souza      : ESD, SOC TD-DFT
   Georgi Stoychev        : AutoAux, RI-MP2 NMR
   Willem Van den Heuvel  : Paramagnetic NMR
   Boris Wezisla          : Elementary symmetry handling
   Frank Wennmohs         : Technical directorship


 We gratefully acknowledge several colleagues who have allowed us to
 interface, adapt or use parts of their codes:
   Stefan Grimme, W. Hujo, H. Kruse,             : VdW corrections, initial TS optimization,
                  C. Bannwarth                     DFT functionals, gCP, sTDA/sTD-DF
   Ed Valeev, F. Pavosevic, A. Kumar             : LibInt (2-el integral package), F12 methods
   Garnet Chan, S. Sharma, J. Yang, R. Olivares  : DMRG
   Ulf Ekstrom                                   : XCFun DFT Library
   Mihaly Kallay                                 : mrcc  (arbitrary order and MRCC methods)
   Andreas Klamt, Michael Diedenhofen            : otool_cosmo (COSMO solvation model)
   Jiri Pittner, Ondrej Demel                    : Mk-CCSD
   Frank Weinhold                                : gennbo (NPA and NBO analysis)
   Christopher J. Cramer and Donald G. Truhlar   : smd solvation model
   Lars Goerigk                                  : TD-DFT with DH, B97 family of functionals
   V. Asgeirsson, H. Jonsson                     : NEB implementation
   FAccTs GmbH                                   : IRC, NEB, NEB-TS, Multilevel, MM, QM/MM, CI optimization
   S Lehtola, MJT Oliveira, MAL Marques          : LibXC Library


 Your calculation uses the libint2 library for the computation of 2-el integrals
 For citations please refer to: http://libint.valeyev.net

 Your ORCA version has been built with support for libXC version: 4.2.3
 For citations please refer to: https://tddft.org/programs/libxc/

 This ORCA versions uses:
   CBLAS   interface :  Fast vector & matrix operations
   LAPACKE interface :  Fast linear algebra routines
   SCALAPACK package :  Parallel linear algebra routines


----- Orbital basis set information -----
Your calculation utilizes the basis: def2-SVP
   F. Weigend and R. Ahlrichs, Phys. Chem. Chem. Phys. 7, 3297 (2005).

================================================================================
                                        WARNINGS
                       Please study these warnings very carefully!
================================================================================


INFO   : the flag for use of LIBINT has been found!

================================================================================
                                       INPUT FILE
================================================================================
NAME = N2_0_1_CASSCF-10-8_def2-SVP.sp.inp
|  1> !rhf def2-svp tightscf
|  2> !normalprint
|  3> 
|  4> %paras
|  5>   rNN [0.501187233627272 0.6084298690766428 0.7386199822079362 0.8966678097917788 1.088534267260644 1.32145576997553 1.6042171611153242 1.9474830399087562 2.3641999865500756 2.870084854071569 3.4842175435383975 4.229760619613384 5.134832907437553 6.233570019315557 7.567411809920191 9.1866653175426 11.152402139117903 13.538761800225439 16.43574799372698 19.952623149688797]
|  6> end
|  7> 
|  8> %scf
|  9>   maxiter 500
| 10> end
| 11> 
| 12> %casscf
| 13>   nel 10
| 14>   norb 8
| 15> end
| 16> 
| 17> *int 0 1
| 18> N 0 0 0 0 0 0
| 19> N 1 0 0 {rNN} 0 0
| 20> *
| 21> 
| 22>                          ****END OF INPUT****
================================================================================

                       ******************************
                       * Parameter Scan Calculation *
                       ******************************

Trajectory settings:
    -> SCF surface will be mapped

There are 1 parameter(s) to be scanned
           RNN: user defined at 20 points
There will be   20 energy evaluations


         *************************************************************
                                TRAJECTORY STEP   1
                RNN  :   0.50118723
         *************************************************************
---------------------------------
CARTESIAN COORDINATES (ANGSTROEM)
---------------------------------
  N      0.000000    0.000000    0.000000
  N      0.501187    0.000000    0.000000

----------------------------
CARTESIAN COORDINATES (A.U.)
----------------------------
  NO LB      ZA    FRAG     MASS         X           Y           Z
   0 N     7.0000    0    14.007    0.000000    0.000000    0.000000
   1 N     7.0000    0    14.007    0.947107    0.000000    0.000000

--------------------------------
INTERNAL COORDINATES (ANGSTROEM)
--------------------------------
 N      0   0   0     0.000000000000     0.00000000     0.00000000
 N      1   0   0     0.501187233627     0.00000000     0.00000000

---------------------------
INTERNAL COORDINATES (A.U.)
---------------------------
 N      0   0   0     0.000000000000     0.00000000     0.00000000
 N      1   0   0     0.947106613373     0.00000000     0.00000000

---------------------
BASIS SET INFORMATION
---------------------
There are 1 groups of distinct atoms

 Group   1 Type N   : 7s4p1d contracted to 3s2p1d pattern {511/31/1}

Atom   0N    basis set group =>   1
Atom   1N    basis set group =>   1

Checking for AutoStart:
The File: N2_0_1_CASSCF-10-8_def2-SVP.sp.gbw exists
Trying to determine its content:
     ... Fine, the file contains calculation information
     ... Fine, the calculation information was read
     ... Fine, the file contains a basis set
     ... Fine, the basis set was read
     ... Fine, the file contains a geometry
     ... Fine, the geometry was read
     ... Fine, the file contains a set of orbitals
     ... Fine, the orbitals can be read
     => possible old guess file was deleted
     => GBW file was renamed to GES file
     => GES file is set as startup file
     => Guess is set to MORead
     ... now leaving AutoStart

------------------------------------------------------------------------------
                           ORCA GTO INTEGRAL CALCULATION
------------------------------------------------------------------------------

                         BASIS SET STATISTICS AND STARTUP INFO

 # of primitive gaussian shells          ...   24
 # of primitive gaussian functions       ...   48
 # of contracted shells                  ...   12
 # of contracted basis functions         ...   28
 Highest angular momentum                ...    2
 Maximum contraction depth               ...    5
 Integral package used                   ... LIBINT
 Integral threshhold            Thresh   ...  2.500e-11
 Primitive cut-off              TCut     ...  2.500e-12


------------------------------ INTEGRAL EVALUATION ----------------------------


 * One electron integrals 
 Pre-screening matrix                    ... done
 Shell pair data                         ... done (   0.000 sec)

-------------------------------------------------------------------------------
                                 ORCA SCF
-------------------------------------------------------------------------------

------------
SCF SETTINGS
------------
Hamiltonian:
 Ab initio Hamiltonian  Method          .... Hartree-Fock(GTOs)


General Settings:
 Integral files         IntName         .... N2_0_1_CASSCF-10-8_def2-SVP.sp
 Hartree-Fock type      HFTyp           .... CASSCF
 Total Charge           Charge          ....    0
 Multiplicity           Mult            ....    1
 Number of Electrons    NEL             ....   14
 Basis Dimension        Dim             ....   28
 Nuclear Repulsion      ENuc            ....     51.7365197414 Eh


Diagonalization of the overlap matrix:
Smallest eigenvalue                        ... 2.288e-04
Time for diagonalization                   ...    0.091 sec
Threshold for overlap eigenvalues          ... 1.000e-08
Number of eigenvalues below threshold      ... 0
Time for construction of square roots      ...    0.002 sec
Total time needed                          ...    0.093 sec

---------------------
INITIAL GUESS: MOREAD
---------------------
Guess MOs are being read from file: N2_0_1_CASSCF-10-8_def2-SVP.sp.ges
Input Geometry matches current geometry (good)
Input basis set matches current basis set (good)
MOs were renormalized
Gram-Schmidt orthogonalization of all MOs with pivot on actives
                      ------------------
                      INITIAL GUESS DONE (   0.0 sec)
                      ------------------


 ... the calculation is a CASSCF calculation -I'm leaving here GOOD LUCK!!!

-------------------------------------------------------------------------------
                              ORCA-CASSCF
-------------------------------------------------------------------------------

Setting up the integral package       ... done
Building the CAS space                ... done (784 configurations for Mult=1)
----------------
GENERAL CI SETUP
----------------

Checking configurations                         ... done
Determining NSOMO,NDOMO and NVMO                ... done
Building up the tree                            ... done
Building N-1 electron tree                      ... done
Building RI configuration space                 ... done
Analyzing the RI configuration space            ... done
Determining NDOMO,NSOMO,NVMO for RI space       ... done
Determination of address arrays                 ... done
Looking for max. no of open shells              ... done
Setting up coupling coefficient container       ... Memory for address arrays  		      ... done
Make address arrays			      ... done
Memory for buffers 			      ... done
Setting up spin-function prototypes	      ... (MAXOPEN=6) 0 2 4 6 8 done
Trivial cases - DOMO's			      ... done (  0.0 MB)
Number of open shells			    ...  0
domo->virtual excitations			... done (  0.0 MB)
domo->somo excitations				... done (  0.0 MB)
somo->virtual excitations			... done (  0.0 MB)
somo->somo excitations				... done (  0.0 MB)
Number of open shells			    ...  2
domo->virtual excitations			... done (  0.0 MB)
domo->somo excitations				... done (  0.0 MB)
somo->virtual excitations			... done (  0.0 MB)
somo->somo excitations				... done (  0.0 MB)
Number of open shells			    ...  4
domo->virtual excitations			... done (  0.0 MB)
domo->somo excitations				... done (  0.0 MB)
somo->virtual excitations			... done (  0.0 MB)
somo->somo excitations				... done (  0.0 MB)
Number of open shells			    ...  6
domo->virtual excitations			... done (  0.0 MB)
domo->somo excitations				... done (  0.0 MB)
somo->virtual excitations			... done (  0.1 MB)
somo->somo excitations				... done (  0.1 MB)
Coupling container construction done
done
Now recording sub-block dimensions              ... done
Memory used for TGeneralCI arrays =     0.2 MB
  Original space  =     0.0
  RI       space  =     0.0
  Address arrays  =     0.1
  Coupling coeffs =     0.1
Multiplicity                          ...       1
# of electrons                        ...      10
# of orbitals                         ...       8
# of roots requested                  ...       1
Configuration space:
# of configurations                   ...     784
# of CSF's                            ...    1176
# of rejected configurations          ...       0
Min. # of SOMOs                       ...       0
Max. # of SOMOs                       ...       6
Max. # of DOMOs                       ...       5
Max. # of VMOs                        ...       3
RI Configuration space:
# of configurations                   ...     784
# of CSF's                            ...    1176
# of rejected configurations          ...       0
Min. # of SOMOs                       ...       0
Max. # of SOMOs                       ...       6
Max. # of DOMOs                       ...       5
Max. # of VMOs                        ...       3
(N-1) Electron Configuration space:
# of configurations                   ...    1016
CSF dimensions:
      0 SOMOs give     1 CSFs
      2 SOMOs give     1 CSFs
      4 SOMOs give     2 CSFs
      6 SOMOs give     5 CSFs


SYSTEM-SPECIFIC SETTINGS:
Number of active electrons          ...   10
Number of active orbitals           ...    8
Total number of electrons           ...   14
Total number of orbitals            ...   28

Determined orbital ranges:
   Internal       0 -    1 (   2 orbitals)
   Active         2 -    9 (   8 orbitals)
   External      10 -   27 (  18 orbitals)
Number of rotation parameters      ...    196

CI-STEP:
CI strategy                         ... General CI
Number of multiplicity blocks       ...    1
BLOCK  1 WEIGHT=   1.0000
  Multiplicity                      ...    1
  #(Configurations)                 ...  784
  #(CSFs)                           ... 1176
  #(Roots)                          ...    1
    ROOT=0 WEIGHT=    1.000000

  PrintLevel                        ...    1
  N(GuessMat)                       ...       512
  MaxDim(CI)                        ...        10
  MaxIter(CI)                       ...        64
  Energy Tolerance CI               ...  2.50e-09
  Residual Tolerance CI             ...  2.50e-09
  Shift(CI)                         ...  1.00e-04

INTEGRAL-TRANSFORMATION-STEP:
  Algorithm                         ... EXACT

ORBITAL-IMPROVEMENT-STEP:
  Algorithm                         ... SuperCI(PT)
  Default Parametrization           ... CAYLEY
  Act-Act rotations                 ... depends on algorithm used

  Note: SuperCI(PT) will ignore FreezeIE, FreezeAct and FreezeGrad. In general Default settings are encouraged.
        In conjunction with ShiftUp, ShiftDn or GradScaling the performance of SuperCI(PT) is less optimal.  

  MaxRot                            ... 2.00e-01 
  Max. no of vectors (DIIS)         ... 15
  DThresh (cut-off) metric          ... 1.00e-06
  Switch step at gradient           ...  3.00e-02 
  Switch step at iteration          ...        50   
  Switch step to                    ... SuperCI(PT)    

SCF-SETTINGS:
  Incremental                       ... on
  RIJCOSX approximation             ... off
  RI-JK approximation               ... off
  AO integral handling              ... DIRECT
  Integral Neglect Thresh           ...  2.50e-11
  Primitive cutoff TCut             ...  2.50e-12
  Energy convergence tolerance      ...  2.50e-08
  Orbital gradient convergence      ...  2.50e-04
  Max. number of iterations         ...        75  


FINAL ORBITALS:
  Active   Orbitals                 ... natural 
  Internal Orbitals                 ... canonical 
  External Orbitals                 ... canonical 

------------------
CAS-SCF ITERATIONS
------------------


MACRO-ITERATION   1: 
   --- Inactive Energy E0 = -62.85827557 Eh
CI-ITERATION   0: 
  -103.072412792   0.003826785744 (    0.01)
CI-ITERATION   1: 
  -103.072837517   0.000041941841 (    0.01)
CI-ITERATION   2: 
  -103.072843647   0.000000210332 (    0.01)
CI-ITERATION   3: 
  -103.072843669   0.000000000666 (    0.01)
   CI-PROBLEM SOLVED
   DENSITIES MADE

                 <<<<<<<<<<<<<<<<<<INITIAL CI STATE CHECK>>>>>>>>>>>>>>>>>>

BLOCK  1 MULT= 1 NROOTS= 1 
ROOT   0:  E=    -103.0728436685 Eh
      0.98868 [   783]: 22222000
      0.00278 [   769]: 22211110

                 <<<<<<<<<<<<<<<<<<INITIAL CI STATE CHECK>>>>>>>>>>>>>>>>>>

   E(CAS)=  -103.072843669 Eh DE=     0.000000000
   --- Energy gap subspaces: Ext-Act = -1.875   Act-Int = 14.271
   N(occ)=  1.99935 1.99656 1.99602 1.99265 1.99265 0.00943 0.00943 0.00391
   ||g|| =      0.000071984 Max(G)=    -0.000054483 Rot=9,1
                     ---- THE CAS-SCF GRADIENT HAS CONVERGED ----
                            --- FINALIZING ORBITALS ---
                    ---- DOING ONE FINAL ITERATION FOR PRINTING ----
   --- Forming Natural Orbitals
   --- Canonicalize Internal Space
   --- Canonicalize External Space

MACRO-ITERATION   2: 
   --- Inactive Energy E0 = -62.85827557 Eh
   --- All densities will be recomputed
CI-ITERATION   0: 
  -103.072412792   0.003826783544 (    0.01)
CI-ITERATION   1: 
  -103.072837517   0.000041941926 (    0.01)
CI-ITERATION   2: 
  -103.072843647   0.000000210336 (    0.01)
CI-ITERATION   3: 
  -103.072843669   0.000000000666 (    0.01)
   CI-PROBLEM SOLVED
   DENSITIES MADE
   E(CAS)=  -103.072843669 Eh DE=    -0.000000000
   --- Energy gap subspaces: Ext-Act = -1.875   Act-Int = 14.271
   N(occ)=  1.99935 1.99656 1.99602 1.99265 1.99265 0.00943 0.00943 0.00391
   ||g|| =      0.000071984 Max(G)=     0.000054483 Rot=9,1
--------------
CASSCF RESULTS
--------------

Final CASSCF energy       : -103.072843669 Eh   -2804.7547 eV

----------------
ORBITAL ENERGIES
----------------

  NO   OCC          E(Eh)            E(eV) 
   0   2.0000     -16.387130      -445.9165 
   1   2.0000     -15.727674      -427.9718 
   2   1.9993      -1.457036       -39.6480 
   3   1.9966      -0.577694       -15.7199 
   4   1.9960      -0.570055       -15.5120 
   5   1.9926      -1.184481       -32.2314 
   6   1.9926      -1.184481       -32.2314 
   7   0.0094       1.264490        34.4085 
   8   0.0094       1.264490        34.4085 
   9   0.0039       2.472018        67.2670 
  10   0.0000       0.596763        16.2387 
  11   0.0000       0.596763        16.2387 
  12   0.0000       0.686612        18.6837 
  13   0.0000       0.803793        21.8723 
  14   0.0000       0.887325        24.1453 
  15   0.0000       0.887325        24.1453 
  16   0.0000       1.083367        29.4799 
  17   0.0000       1.941241        52.8238 
  18   0.0000       1.979926        53.8765 
  19   0.0000       1.979926        53.8765 
  20   0.0000       3.174535        86.3835 
  21   0.0000       3.174535        86.3835 
  22   0.0000       3.340565        90.9014 
  23   0.0000       3.340565        90.9014 
  24   0.0000       3.382789        92.0504 
  25   0.0000       5.537673       150.6877 
  26   0.0000       5.537673       150.6877 
  27   0.0000       5.612064       152.7120 


---------------------------------------------
CAS-SCF STATES FOR BLOCK  1 MULT= 1 NROOTS= 1
---------------------------------------------

ROOT   0:  E=    -103.0728436685 Eh
      0.98868 [   783]: 22222000
      0.00278 [   769]: 22211110


--------------
DENSITY MATRIX
--------------

                  0          1          2          3          4          5    
      0       1.999347  -0.000000   0.000000  -0.000000  -0.000000  -0.000000
      1      -0.000000   1.996562   0.000000  -0.000000   0.000000   0.000000
      2       0.000000   0.000000   1.996022   0.000000   0.000000  -0.000000
      3      -0.000000  -0.000000   0.000000   1.992646   0.000000   0.000000
      4      -0.000000   0.000000   0.000000   0.000000   1.992646   0.000000
      5      -0.000000   0.000000  -0.000000   0.000000   0.000000   0.009432
      6       0.000000  -0.000000   0.000000  -0.000000  -0.000000  -0.000000
      7      -0.000000  -0.000000   0.000000   0.000000  -0.000000   0.000000
                   6          7    
      0       0.000000  -0.000000
      1      -0.000000  -0.000000
      2       0.000000   0.000000
      3      -0.000000   0.000000
      4      -0.000000  -0.000000
      5      -0.000000   0.000000
      6       0.009432  -0.000000
      7      -0.000000   0.003914
Trace of the electron density: 10.000000

-----------------
ENERGY COMPONENTS
-----------------

One electron energy          :   -235.284349631 Eh       -6402.4126 eV
Two electron energy          :     80.474986221 Eh        2189.8357 eV
Nuclear repulsion energy     :     51.736519741 Eh        1407.8223 eV
                               ----------------
                                 -103.072843669

Kinetic energy               :    121.260918329 Eh        3299.6773 eV
Potential energy             :   -224.333761997 Eh       -6104.4320 eV
Virial ratio                 :     -1.850008767 
                               ----------------
                                 -103.072843669

Core energy                  :    -62.858275573 Eh    -1710.4606 eV


----------------------------
LOEWDIN ORBITAL-COMPOSITIONS
----------------------------

                      0         1         2         3         4         5   
                 -16.38713 -15.72767  -1.45704  -0.57769  -0.57006  -1.18448
                   2.00000   2.00000   1.99935   1.99656   1.99602   1.99265
                  --------  --------  --------  --------  --------  --------
 0 N  s              45.9      47.8      39.9       6.5      13.0       0.0
 0 N  pz              0.0       0.0       0.0       0.0       0.0      45.7
 0 N  px              2.4       0.9       9.6      43.1      33.5       0.0
 0 N  py              0.0       0.0       0.0       0.0       0.0       0.6
 0 N  dz2             0.4       0.3       0.1       0.1       0.9       0.0
 0 N  dxz             0.0       0.0       0.0       0.0       0.0       3.7
 0 N  dx2y2           1.3       1.0       0.4       0.3       2.6       0.0
 1 N  s              45.9      47.8      39.9       6.5      13.0       0.0
 1 N  pz              0.0       0.0       0.0       0.0       0.0      45.7
 1 N  px              2.4       0.9       9.6      43.1      33.5       0.0
 1 N  py              0.0       0.0       0.0       0.0       0.0       0.6
 1 N  dz2             0.4       0.3       0.1       0.1       0.9       0.0
 1 N  dxz             0.0       0.0       0.0       0.0       0.0       3.7
 1 N  dx2y2           1.3       1.0       0.4       0.3       2.6       0.0

                      6         7         8         9        10        11   
                  -1.18448   1.26449   1.26449   2.47202   0.59676   0.59676
                   1.99265   0.00943   0.00943   0.00391   0.00000   0.00000
                  --------  --------  --------  --------  --------  --------
 0 N  s               0.0       0.0       0.0       1.9       0.0       0.0
 0 N  pz              0.6       0.3      26.8       0.0      47.9       0.6
 0 N  px              0.0       0.0       0.0      33.9       0.0       0.0
 0 N  py             45.7      26.8       0.3       0.0       0.6      47.9
 0 N  dz2             0.0       0.0       0.0       3.6       0.0       0.0
 0 N  dxz             0.0       0.3      22.6       0.0       1.5       0.0
 0 N  dx2y2           0.0       0.0       0.0      10.7       0.0       0.0
 0 N  dxy             3.7      22.6       0.3       0.0       0.0       1.5
 1 N  s               0.0       0.0       0.0       1.9       0.0       0.0
 1 N  pz              0.6       0.3      26.8       0.0      47.9       0.6
 1 N  px              0.0       0.0       0.0      33.9       0.0       0.0
 1 N  py             45.7      26.8       0.3       0.0       0.6      47.9
 1 N  dz2             0.0       0.0       0.0       3.6       0.0       0.0
 1 N  dxz             0.0       0.3      22.6       0.0       1.5       0.0
 1 N  dx2y2           0.0       0.0       0.0      10.7       0.0       0.0
 1 N  dxy             3.7      22.6       0.3       0.0       0.0       1.5

                     12        13        14        15        16        17   
                   0.68661   0.80379   0.88732   0.88732   1.08337   1.94124
                   0.00000   0.00000   0.00000   0.00000   0.00000   0.00000
                  --------  --------  --------  --------  --------  --------
 0 N  s              28.1      19.3       0.0       0.0      48.6       7.8
 0 N  pz              0.0       0.0      49.4       0.6       0.0       0.0
 0 N  px             21.9      27.1       0.0       0.0       1.0      16.7
 0 N  py              0.0       0.0       0.6      49.4       0.0       0.0
 0 N  dz2             0.0       0.9       0.0       0.0       0.1       6.4
 0 N  dx2y2           0.0       2.7       0.0       0.0       0.3      19.1
 1 N  s              28.1      19.3       0.0       0.0      48.6       7.8
 1 N  pz              0.0       0.0      49.4       0.6       0.0       0.0
 1 N  px             21.9      27.1       0.0       0.0       1.0      16.7
 1 N  py              0.0       0.0       0.6      49.4       0.0       0.0
 1 N  dz2             0.0       0.9       0.0       0.0       0.1       6.4
 1 N  dx2y2           0.0       2.7       0.0       0.0       0.3      19.1

                     18        19        20        21        22        23   
                   1.97993   1.97993   3.17454   3.17454   3.34056   3.34056
                   0.00000   0.00000   0.00000   0.00000   0.00000   0.00000
                  --------  --------  --------  --------  --------  --------
 0 N  pz              0.0       0.0       5.2       0.1       0.0       0.0
 0 N  py              0.0       0.0       0.1       5.2       0.0       0.0
 0 N  dz2             0.2      37.3       0.0       0.0       0.1      37.4
 0 N  dxz             0.0       0.0      44.2       0.6       0.0       0.0
 0 N  dyz            49.7       0.3       0.0       0.0      49.9       0.1
 0 N  dx2y2           0.1      12.4       0.0       0.0       0.0      12.5
 0 N  dxy             0.0       0.0       0.6      44.2       0.0       0.0
 1 N  pz              0.0       0.0       5.2       0.1       0.0       0.0
 1 N  py              0.0       0.0       0.1       5.2       0.0       0.0
 1 N  dz2             0.2      37.3       0.0       0.0       0.1      37.4
 1 N  dxz             0.0       0.0      44.2       0.6       0.0       0.0
 1 N  dyz            49.7       0.3       0.0       0.0      49.9       0.1
 1 N  dx2y2           0.1      12.4       0.0       0.0       0.0      12.5
 1 N  dxy             0.0       0.0       0.6      44.2       0.0       0.0

                     24        25        26        27   
                   3.38279   5.53767   5.53767   5.61206
                   0.00000   0.00000   0.00000   0.00000
                  --------  --------  --------  --------
 0 N  s               3.8       0.0       0.0      37.4
 0 N  pz              0.0       0.3      22.6       0.0
 0 N  px              5.5       0.0       0.0       4.4
 0 N  py              0.0      22.6       0.3       0.0
 0 N  dz2            10.2       0.0       0.0       2.0
 0 N  dxz             0.0       0.3      26.8       0.0
 0 N  dx2y2          30.5       0.0       0.0       6.1
 0 N  dxy             0.0      26.8       0.3       0.0
 1 N  s               3.8       0.0       0.0      37.4
 1 N  pz              0.0       0.3      22.6       0.0
 1 N  px              5.5       0.0       0.0       4.4
 1 N  py              0.0      22.6       0.3       0.0
 1 N  dz2            10.2       0.0       0.0       2.0
 1 N  dxz             0.0       0.3      26.8       0.0
 1 N  dx2y2          30.5       0.0       0.0       6.1
 1 N  dxy             0.0      26.8       0.3       0.0

----------------------------
LOEWDIN REDUCED ACTIVE MOs  
----------------------------

                      0         1         2         3         4         5   
                 -16.38713 -15.72767  -1.45704  -0.57769  -0.57006  -1.18448
                   2.00000   2.00000   1.99935   1.99656   1.99602   1.99265
                  --------  --------  --------  --------  --------  --------
 0 N  s              45.9      47.8      39.9       6.5      13.0       0.0
 0 N  pz              0.0       0.0       0.0       0.0       0.0      45.7
 0 N  px              2.4       0.9       9.6      43.1      33.5       0.0
 1 N  s              45.9      47.8      39.9       6.5      13.0       0.0
 1 N  pz              0.0       0.0       0.0       0.0       0.0      45.7
 1 N  px              2.4       0.9       9.6      43.1      33.5       0.0

                      6         7         8         9        10        11   
                  -1.18448   1.26449   1.26449   2.47202   0.59676   0.59676
                   1.99265   0.00943   0.00943   0.00391   0.00000   0.00000
                  --------  --------  --------  --------  --------  --------
 0 N  pz              0.6       0.3      26.8       0.0      47.9       0.6
 0 N  px              0.0       0.0       0.0      33.9       0.0       0.0
 0 N  py             45.7      26.8       0.3       0.0       0.6      47.9
 0 N  dxz             0.0       0.3      22.6       0.0       1.5       0.0
 0 N  dx2y2           0.0       0.0       0.0      10.7       0.0       0.0
 0 N  dxy             3.7      22.6       0.3       0.0       0.0       1.5
 1 N  pz              0.6       0.3      26.8       0.0      47.9       0.6
 1 N  px              0.0       0.0       0.0      33.9       0.0       0.0
 1 N  py             45.7      26.8       0.3       0.0       0.6      47.9
 1 N  dxz             0.0       0.3      22.6       0.0       1.5       0.0
 1 N  dx2y2           0.0       0.0       0.0      10.7       0.0       0.0
 1 N  dxy             3.7      22.6       0.3       0.0       0.0       1.5

------------------------------------------------------------------------------
                           ORCA POPULATION ANALYSIS
------------------------------------------------------------------------------
Input electron density              ... N2_0_1_CASSCF-10-8_def2-SVP.sp.scfp
BaseName (.gbw .S,...)              ... N2_0_1_CASSCF-10-8_def2-SVP.sp

                    ********************************
                    * MULLIKEN POPULATION ANALYSIS *
                    ********************************

-----------------------
MULLIKEN ATOMIC CHARGES
-----------------------
   0 N :    0.000000
   1 N :   -0.000000
Sum of atomic charges:   -0.0000000

--------------------------------
MULLIKEN REDUCED ORBITAL CHARGES
--------------------------------
  0 N s       :     3.691012  s :     3.691012
      pz      :     0.961359  p :     3.252587
      px      :     1.329870
      py      :     0.961359
      dz2     :    -0.005740  d :     0.056400
      dxz     :     0.039680
      dyz     :     0.000000
      dx2y2   :    -0.017220
      dxy     :     0.039680
  1 N s       :     3.691012  s :     3.691012
      pz      :     0.961359  p :     3.252587
      px      :     1.329870
      py      :     0.961359
      dz2     :    -0.005740  d :     0.056400
      dxz     :     0.039680
      dyz     :     0.000000
      dx2y2   :    -0.017220
      dxy     :     0.039680

------------------------
MULLIKEN OVERLAP CHARGES
------------------------
B(  0-N ,  1-N ) :  -6.4281 


                     *******************************
                     * LOEWDIN POPULATION ANALYSIS *
                     *******************************

----------------------
LOEWDIN ATOMIC CHARGES
----------------------
   0 N :    0.000000
   1 N :   -0.000000

-------------------------------
LOEWDIN REDUCED ORBITAL CHARGES
-------------------------------
  0 N s       :     3.061298  s :     3.061298
      pz      :     0.924243  p :     3.635429
      px      :     1.786944
      py      :     0.924243
      dz2     :     0.037420  d :     0.303273
      dxz     :     0.076796
      dyz     :     0.000000
      dx2y2   :     0.112261
      dxy     :     0.076796
  1 N s       :     3.061298  s :     3.061298
      pz      :     0.924243  p :     3.635429
      px      :     1.786944
      py      :     0.924243
      dz2     :     0.037420  d :     0.303273
      dxz     :     0.076796
      dyz     :     0.000000
      dx2y2   :     0.112261
      dxy     :     0.076796

---------------------------------
LOEWDIN BOND ORDERS (THRESH 0.050000)
---------------------------------
B(  0-N ,  1-N ) :   4.2842 


                      *****************************
                      * MAYER POPULATION ANALYSIS *
                      *****************************

  NA   - Mulliken gross atomic population
  ZA   - Total nuclear charge
  QA   - Mulliken gross atomic charge
  VA   - Mayer's total valence
  BVA  - Mayer's bonded valence
  FA   - Mayer's free valence

  ATOM       NA         ZA         QA         VA         BVA        FA
  0 N      7.0000     7.0000     0.0000     0.6636     0.6182     0.0454
  1 N      7.0000     7.0000    -0.0000     0.6636     0.6182     0.0454

  Mayer bond orders larger than 0.100000
B(  0-N ,  1-N ) :   0.6182 


-------------------------------------------------------------
 Forming the transition density       ... done in 0.002997 sec
-------------------------------------------------------------



==========================================
CASSCF UV, CD spectra and dipole moments
==========================================
-------------------
ABSORPTION SPECTRUM
-------------------

Center of mass           = (  0.4736,  0.0000,  0.0000)
Nuclear contribution to the dipole moment =     0.000000,    0.000000,    0.000000 au

Calculating the dipole integrals                  ... done
Transforming integrals                            ... done
Calculating the Linear Momentum integrals         ... done
Transforming integrals                            ... done
Calculating the Angular Momentum integrals        ... done
Transforming integrals                            ... done

Ground state mult:    1
Ground state block:   0
Ground state root:    0


------------------------------------------------------------------------------
                                 DIPOLE MOMENTS
------------------------------------------------------------------------------
  Root  Block           TX        TY        TZ           |T|
                      (Debye)   (Debye)   (Debye)      (Debye)
------------------------------------------------------------------------------
    0    0            0.00000   0.00000  -0.00000      0.00000

--------------
CASSCF TIMINGS
--------------

Total time                       ...        0.9 sec
Sum of individual times          ...        0.7 sec ( 82.5%)

Calculation of AO operators
   F(Core) operator              ...        0.1 sec ( 13.6%)
   G(Act) operator               ...        0.0 sec (  2.7%)
   J(AO) operators               ...        0.0 sec (  0.0%)
Calculation of MO transformed quantities
   J(MO) operators               ...        0.1 sec ( 10.7%)
   (pq|rs) integrals             ...        0.0 sec (  0.0%)
   AO->MO one electron integrals ...        0.0 sec (  2.0%)
Configuration interaction steps
   CI-setup phase                ...        0.0 sec (  0.7%)
   CI-solution phase             ...        0.4 sec ( 49.4%)
   Generation of densities       ...        0.0 sec (  2.5%)
Orbital improvement steps
   Orbital gradient              ...        0.0 sec (  0.3%)
Properties                       ...        0.0 sec (  0.6%)
   SOC integral calculation      ...        0.0 sec (  0.0%)
   SSC RMEs (incl. integrals)    ...        0.0 sec (  0.0%)
   SOC RMEs                      ...        0.0 sec (  0.0%)

-------------------------   --------------------
FINAL SINGLE POINT ENERGY      -103.072843668509
-------------------------   --------------------

Storing actual gbw-file in N2_0_1_CASSCF-10-8_def2-SVP.sp.001.gbw ... done

                            ***************************************
                            *     ORCA property calculations      *
                            ***************************************

                                    ---------------------
                                    Active property flags
                                    ---------------------
   (+) Dipole Moment


------------------------------------------------------------------------------
                       ORCA ELECTRIC PROPERTIES CALCULATION
------------------------------------------------------------------------------

Dipole Moment Calculation                       ... on
Quadrupole Moment Calculation                   ... off
Polarizability Calculation                      ... off
GBWName                                         ... N2_0_1_CASSCF-10-8_def2-SVP.sp.gbw
Electron density file                           ... N2_0_1_CASSCF-10-8_def2-SVP.sp.scfp
The origin for moment calculation is the CENTER OF MASS  = ( 0.473553,  0.000000  0.000000)

-------------
DIPOLE MOMENT
-------------
                                X             Y             Z
Electronic contribution:      0.00000       0.00000      -0.00000
Nuclear contribution   :     -0.00000       0.00000       0.00000
                        -----------------------------------------
Total Dipole Moment    :      0.00000       0.00000      -0.00000
                        -----------------------------------------
Magnitude (a.u.)       :      0.00000
Magnitude (Debye)      :      0.00000



--------------------
Rotational spectrum 
--------------------
 
Rotational constants in cm-1:     0.000000     9.582565     9.582565 
Rotational constants in MHz :     0.000000 287278.067701 287278.067701 

 Dipole components along the rotational axes: 
x,y,z [a.u.] :     0.000000     0.000000    -0.000000 
x,y,z [Debye]:     0.000000     0.000000    -0.000000 

 

         *************************************************************
                                TRAJECTORY STEP   2
                RNN  :   0.60842987
         *************************************************************
---------------------------------
CARTESIAN COORDINATES (ANGSTROEM)
---------------------------------
  N      0.000000    0.000000    0.000000
  N      0.608430    0.000000    0.000000

----------------------------
CARTESIAN COORDINATES (A.U.)
----------------------------
  NO LB      ZA    FRAG     MASS         X           Y           Z
   0 N     7.0000    0    14.007    0.000000    0.000000    0.000000
   1 N     7.0000    0    14.007    1.149766    0.000000    0.000000

--------------------------------
INTERNAL COORDINATES (ANGSTROEM)
--------------------------------
 N      0   0   0     0.000000000000     0.00000000     0.00000000
 N      1   0   0     0.608429869077     0.00000000     0.00000000

---------------------------
INTERNAL COORDINATES (A.U.)
---------------------------
 N      0   0   0     0.000000000000     0.00000000     0.00000000
 N      1   0   0     1.149765824252     0.00000000     0.00000000


Diagonalization of the overlap matrix:
Smallest eigenvalue                        ... 3.432e-04
Time for diagonalization                   ...    0.000 sec
Threshold for overlap eigenvalues          ... 1.000e-08
Number of eigenvalues below threshold      ... 0
Time for construction of square roots      ...    0.001 sec
Total time needed                          ...    0.002 sec



 ... the calculation is a CASSCF calculation -I'm leaving here GOOD LUCK!!!

-------------------------------------------------------------------------------
                              ORCA-CASSCF
-------------------------------------------------------------------------------

Setting up the integral package       ... done
Building the CAS space                ... done (784 configurations for Mult=1)
----------------
GENERAL CI SETUP
----------------

Checking configurations                         ... done
Determining NSOMO,NDOMO and NVMO                ... done
Building up the tree                            ... done
Building N-1 electron tree                      ... done
Building RI configuration space                 ... done
Analyzing the RI configuration space            ... done
Determining NDOMO,NSOMO,NVMO for RI space       ... done
Determination of address arrays                 ... done
Looking for max. no of open shells              ... done
Setting up coupling coefficient container       ... Memory for address arrays  		      ... done
Make address arrays			      ... done
Memory for buffers 			      ... done
Setting up spin-function prototypes	      ... (MAXOPEN=6) 0 2 4 6 8 done
Trivial cases - DOMO's			      ... done (  0.0 MB)
Number of open shells			    ...  0
domo->virtual excitations			... done (  0.0 MB)
domo->somo excitations				... done (  0.0 MB)
somo->virtual excitations			... done (  0.0 MB)
somo->somo excitations				... done (  0.0 MB)
Number of open shells			    ...  2
domo->virtual excitations			... done (  0.0 MB)
domo->somo excitations				... done (  0.0 MB)
somo->virtual excitations			... done (  0.0 MB)
somo->somo excitations				... done (  0.0 MB)
Number of open shells			    ...  4
domo->virtual excitations			... done (  0.0 MB)
domo->somo excitations				... done (  0.0 MB)
somo->virtual excitations			... done (  0.0 MB)
somo->somo excitations				... done (  0.0 MB)
Number of open shells			    ...  6
domo->virtual excitations			... done (  0.0 MB)
domo->somo excitations				... done (  0.0 MB)
somo->virtual excitations			... done (  0.1 MB)
somo->somo excitations				... done (  0.1 MB)
Coupling container construction done
done
Now recording sub-block dimensions              ... done
Memory used for TGeneralCI arrays =     0.2 MB
  Original space  =     0.0
  RI       space  =     0.0
  Address arrays  =     0.1
  Coupling coeffs =     0.1
Multiplicity                          ...       1
# of electrons                        ...      10
# of orbitals                         ...       8
# of roots requested                  ...       1
Configuration space:
# of configurations                   ...     784
# of CSF's                            ...    1176
# of rejected configurations          ...       0
Min. # of SOMOs                       ...       0
Max. # of SOMOs                       ...       6
Max. # of DOMOs                       ...       5
Max. # of VMOs                        ...       3
RI Configuration space:
# of configurations                   ...     784
# of CSF's                            ...    1176
# of rejected configurations          ...       0
Min. # of SOMOs                       ...       0
Max. # of SOMOs                       ...       6
Max. # of DOMOs                       ...       5
Max. # of VMOs                        ...       3
(N-1) Electron Configuration space:
# of configurations                   ...    1016
CSF dimensions:
      0 SOMOs give     1 CSFs
      2 SOMOs give     1 CSFs
      4 SOMOs give     2 CSFs
      6 SOMOs give     5 CSFs


SYSTEM-SPECIFIC SETTINGS:
Number of active electrons          ...   10
Number of active orbitals           ...    8
Total number of electrons           ...   14
Total number of orbitals            ...   28

Determined orbital ranges:
   Internal       0 -    1 (   2 orbitals)
   Active         2 -    9 (   8 orbitals)
   External      10 -   27 (  18 orbitals)
Number of rotation parameters      ...    196

CI-STEP:
CI strategy                         ... General CI
Number of multiplicity blocks       ...    1
BLOCK  1 WEIGHT=   1.0000
  Multiplicity                      ...    1
  #(Configurations)                 ...  784
  #(CSFs)                           ... 1176
  #(Roots)                          ...    1
    ROOT=0 WEIGHT=    1.000000

  PrintLevel                        ...    1
  N(GuessMat)                       ...       512
  MaxDim(CI)                        ...        10
  MaxIter(CI)                       ...        64
  Energy Tolerance CI               ...  2.50e-09
  Residual Tolerance CI             ...  2.50e-09
  Shift(CI)                         ...  1.00e-04

INTEGRAL-TRANSFORMATION-STEP:
  Algorithm                         ... EXACT

ORBITAL-IMPROVEMENT-STEP:
  Algorithm                         ... SuperCI(PT)
  Default Parametrization           ... CAYLEY
  Act-Act rotations                 ... depends on algorithm used

  Note: SuperCI(PT) will ignore FreezeIE, FreezeAct and FreezeGrad. In general Default settings are encouraged.
        In conjunction with ShiftUp, ShiftDn or GradScaling the performance of SuperCI(PT) is less optimal.  

  MaxRot                            ... 2.00e-01 
  Max. no of vectors (DIIS)         ... 15
  DThresh (cut-off) metric          ... 1.00e-06
  Switch step at gradient           ...  3.00e-02 
  Switch step at iteration          ...        50   
  Switch step to                    ... SuperCI(PT)    

SCF-SETTINGS:
  Incremental                       ... on
  RIJCOSX approximation             ... off
  RI-JK approximation               ... off
  AO integral handling              ... DIRECT
  Integral Neglect Thresh           ...  2.50e-11
  Primitive cutoff TCut             ...  2.50e-12
  Energy convergence tolerance      ...  2.50e-08
  Orbital gradient convergence      ...  2.50e-04
  Max. number of iterations         ...        75  


FINAL ORBITALS:
  Active   Orbitals                 ... natural 
  Internal Orbitals                 ... canonical 
  External Orbitals                 ... canonical 

------------------
CAS-SCF ITERATIONS
------------------


MACRO-ITERATION   1: 
   --- Inactive Energy E0 = -65.46979892 Eh
CI-ITERATION   0: 
  -104.598547147   0.006119251075 (    0.01)
CI-ITERATION   1: 
  -104.599354854   0.000104968088 (    0.01)
CI-ITERATION   2: 
  -104.599372904   0.000000645184 (    0.01)
CI-ITERATION   3: 
  -104.599372980   0.000000004594 (    0.01)
CI-ITERATION   4: 
  -104.599372980   0.000000000042 (    0.01)
   CI-PROBLEM SOLVED
   DENSITIES MADE

                 <<<<<<<<<<<<<<<<<<INITIAL CI STATE CHECK>>>>>>>>>>>>>>>>>>

BLOCK  1 MULT= 1 NROOTS= 1 
ROOT   0:  E=    -104.5993729803 Eh
      0.96809 [   783]: 22222000
      0.01429 [   640]: 21222001
      0.00441 [   769]: 22211110
      0.00262 [   779]: 22220200
      0.00262 [   754]: 22202020

                 <<<<<<<<<<<<<<<<<<INITIAL CI STATE CHECK>>>>>>>>>>>>>>>>>>

   E(CAS)=  -104.599372980 Eh DE=     0.000000000
   --- Energy gap subspaces: Ext-Act = -1.135   Act-Int = 13.257
   N(occ)=  1.99890 1.98200 1.99349 1.98779 1.98779 0.01470 0.01470 0.02063
   ||g|| =     14.156142521 Max(G)=   -14.011578304 Rot=9,1
   --- Orbital Update [SuperCI(PT)]
   --- Canonicalize Internal Space
   --- Canonicalize External Space
   --- SX_PT (Skipped TA=0 IT=0): ||X|| =      0.313901069 Max(X)(9,1) =     -0.213814051 
   --- SFit(Active Orbitals)

MACRO-ITERATION   2: 
   --- Inactive Energy E0 = -67.07300923 Eh
CI-ITERATION   0: 
  -106.182108695   0.005006334057 (    0.01)
CI-ITERATION   1: 
  -106.182715575   0.000071102804 (    0.01)
CI-ITERATION   2: 
  -106.182726211   0.000000437277 (    0.01)
CI-ITERATION   3: 
  -106.182726263   0.000000002132 (    0.01)
   CI-PROBLEM SOLVED
   DENSITIES MADE
   E(CAS)=  -106.182726263 Eh DE=    -1.583353283
   --- Energy gap subspaces: Ext-Act = -1.681   Act-Int = 13.718
   N(occ)=  1.99913 1.99655 1.99549 1.98864 1.98864 0.01352 0.01352 0.00450
   ||g|| =      1.183222518 Max(G)=    -0.902028330 Rot=9,1
   --- Orbital Update [SuperCI(PT)]
   --- Canonicalize Internal Space
   --- Canonicalize External Space
   --- SX_PT (Skipped TA=0 IT=0): ||X|| =      0.127332697 Max(X)(2,1) =      0.072901042 
   --- SFit(Active Orbitals)

MACRO-ITERATION   3: 
   --- Inactive Energy E0 = -67.46393713 Eh
CI-ITERATION   0: 
  -106.202054123   0.004881543170 (    0.01)
CI-ITERATION   1: 
  -106.202647858   0.000067181974 (    0.01)
CI-ITERATION   2: 
  -106.202657857   0.000000389231 (    0.01)
CI-ITERATION   3: 
  -106.202657905   0.000000002034 (    0.01)
   CI-PROBLEM SOLVED
   DENSITIES MADE
   E(CAS)=  -106.202657905 Eh DE=    -0.019931642
   --- Energy gap subspaces: Ext-Act = -1.740   Act-Int = 13.913
   N(occ)=  1.99907 1.99637 1.99566 1.98880 1.98880 0.01344 0.01344 0.00442
   ||g|| =      0.397589814 Max(G)=    -0.275113318 Rot=9,1
   --- Orbital Update [SuperCI(PT)]
   --- Canonicalize Internal Space
   --- Canonicalize External Space
   --- SX_PT (Skipped TA=0 IT=0): ||X|| =      0.065327058 Max(X)(17,9) =      0.034712250 
   --- SFit(Active Orbitals)

MACRO-ITERATION   4: 
   --- Inactive Energy E0 = -67.50357705 Eh
CI-ITERATION   0: 
  -106.205273830   0.004954656963 (    0.01)
CI-ITERATION   1: 
  -106.205868597   0.000064413370 (    0.01)
CI-ITERATION   2: 
  -106.205878007   0.000000362746 (    0.01)
CI-ITERATION   3: 
  -106.205878051   0.000000001925 (    0.01)
   CI-PROBLEM SOLVED
   DENSITIES MADE
   E(CAS)=  -106.205878051 Eh DE=    -0.003220146
   --- Energy gap subspaces: Ext-Act = -1.868   Act-Int = 13.942
   N(occ)=  1.99899 1.99598 1.99589 1.98882 1.98882 0.01350 0.01350 0.00448
   ||g|| =      0.211845032 Max(G)=    -0.137730874 Rot=9,1
   --- Orbital Update [SuperCI(PT)]
   --- Canonicalize Internal Space
   --- Canonicalize External Space
   --- SX_PT (Skipped TA=0 IT=0): ||X|| =      0.062007686 Max(X)(17,9) =      0.046498003 
   --- SFit(Active Orbitals)

MACRO-ITERATION   5: 
   --- Inactive Energy E0 = -67.51704921 Eh
CI-ITERATION   0: 
  -106.206314604   0.005222625378 (    0.01)
CI-ITERATION   1: 
  -106.206931289   0.000063960306 (    0.01)
CI-ITERATION   2: 
  -106.206940397   0.000000357617 (    0.01)
CI-ITERATION   3: 
  -106.206940440   0.000000001907 (    0.01)
   CI-PROBLEM SOLVED
   DENSITIES MADE
   E(CAS)=  -106.206940440 Eh DE=    -0.001062390
   --- Energy gap subspaces: Ext-Act = -2.022   Act-Int = 13.955
   N(occ)=  1.99887 1.99573 1.99615 1.98884 1.98884 0.01354 0.01354 0.00449
   ||g|| =      0.165990704 Max(G)=    -0.123085398 Rot=9,1
   --- Orbital Update [SuperCI(PT)]
   --- Canonicalize Internal Space
   --- Canonicalize External Space
   --- SX_PT (Skipped TA=0 IT=0): ||X|| =      0.059378255 Max(X)(17,9) =      0.044953471 
   --- SFit(Active Orbitals)

MACRO-ITERATION   6: 
   --- Inactive Energy E0 = -67.51785824 Eh
CI-ITERATION   0: 
  -106.207244023   0.004440260945 (    0.01)
CI-ITERATION   1: 
  -106.207747186   0.000033192451 (    0.01)
CI-ITERATION   2: 
  -106.207751094   0.000000225200 (    0.01)
CI-ITERATION   3: 
  -106.207751119   0.000000001082 (    0.01)
   CI-PROBLEM SOLVED
   DENSITIES MADE
   E(CAS)=  -106.207751119 Eh DE=    -0.000810679
   --- Energy gap subspaces: Ext-Act = -2.325   Act-Int = 13.970
   N(occ)=  1.99854 1.99546 1.99670 1.98879 1.98879 0.01363 0.01363 0.00444
   ||g|| =      0.137934901 Max(G)=    -0.100725800 Rot=9,1
   --- Orbital Update [SuperCI(PT)]
   --- Canonicalize Internal Space
   --- Canonicalize External Space
   --- SX_PT (Skipped TA=0 IT=0): ||X|| =      0.035404605 Max(X)(14,9) =     -0.024302349 
   --- SFit(Active Orbitals)

MACRO-ITERATION   7: 
   --- Inactive Energy E0 = -67.45005458 Eh
CI-ITERATION   0: 
  -106.207462867   0.006265733261 (    0.01)
CI-ITERATION   1: 
  -106.208176728   0.000037492081 (    0.01)
CI-ITERATION   2: 
  -106.208181272   0.000000257625 (    0.01)
CI-ITERATION   3: 
  -106.208181300   0.000000001485 (    0.01)
   CI-PROBLEM SOLVED
   DENSITIES MADE
   E(CAS)=  -106.208181300 Eh DE=    -0.000430181
   --- Energy gap subspaces: Ext-Act = -2.489   Act-Int = 13.990
   N(occ)=  1.99813 1.99526 1.99734 1.98871 1.98871 0.01369 0.01369 0.00446
   ||g|| =      0.026538788 Max(G)=    -0.015206468 Rot=16,1
   --- Orbital Update [SuperCI(PT)]
   --- Canonicalize Internal Space
   --- Canonicalize External Space
   --- SX_PT (Skipped TA=0 IT=0): ||X|| =      0.018887773 Max(X)(10,9) =     -0.015537277 
   --- SFit(Active Orbitals)

MACRO-ITERATION   8: 
   --- Inactive Energy E0 = -67.46555294 Eh
CI-ITERATION   0: 
  -106.207562870   0.005644695189 (    0.01)
CI-ITERATION   1: 
  -106.208202845   0.000035737056 (    0.01)
CI-ITERATION   2: 
  -106.208207109   0.000000245249 (    0.01)
CI-ITERATION   3: 
  -106.208207136   0.000000001299 (    0.01)
   CI-PROBLEM SOLVED
   DENSITIES MADE
   E(CAS)=  -106.208207136 Eh DE=    -0.000025836
   --- Energy gap subspaces: Ext-Act = -2.461   Act-Int = 13.987
   N(occ)=  1.99827 1.99528 1.99715 1.98875 1.98875 0.01366 0.01366 0.00447
   ||g|| =      0.007334170 Max(G)=     0.005189498 Rot=13,0
   --- Orbital Update [SuperCI(PT)]
   --- Canonicalize Internal Space
   --- Canonicalize External Space
   --- SX_PT (Skipped TA=0 IT=0): ||X|| =      0.003929121 Max(X)(10,9) =     -0.003130351 
   --- SFit(Active Orbitals)

MACRO-ITERATION   9: 
   --- Inactive Energy E0 = -67.46162289 Eh
CI-ITERATION   0: 
  -106.207548945   0.005781487395 (    0.01)
CI-ITERATION   1: 
  -106.208204895   0.000036086509 (    0.01)
CI-ITERATION   2: 
  -106.208209214   0.000000247772 (    0.01)
CI-ITERATION   3: 
  -106.208209241   0.000000001335 (    0.01)
   CI-PROBLEM SOLVED
   DENSITIES MADE
   E(CAS)=  -106.208209241 Eh DE=    -0.000002105
   --- Energy gap subspaces: Ext-Act = -2.470   Act-Int = 13.988
   N(occ)=  1.99824 1.99526 1.99719 1.98874 1.98874 0.01367 0.01367 0.00448
   ||g|| =      0.001762098 Max(G)=     0.000868470 Rot=9,1
   --- Orbital Update [SuperCI(PT)]
   --- Canonicalize Internal Space
   --- Canonicalize External Space
   --- SX_PT (Skipped TA=0 IT=0): ||X|| =      0.000756444 Max(X)(10,9) =      0.000665794 
   --- SFit(Active Orbitals)

MACRO-ITERATION  10: 
   --- Inactive Energy E0 = -67.46241941 Eh
CI-ITERATION   0: 
  -106.207552053   0.005755664260 (    0.01)
CI-ITERATION   1: 
  -106.208205041   0.000036014814 (    0.01)
CI-ITERATION   2: 
  -106.208209349   0.000000247266 (    0.01)
CI-ITERATION   3: 
  -106.208209376   0.000000001328 (    0.01)
   CI-PROBLEM SOLVED
   DENSITIES MADE
   E(CAS)=  -106.208209376 Eh DE=    -0.000000135
   --- Energy gap subspaces: Ext-Act = -2.468   Act-Int = 13.987
   N(occ)=  1.99824 1.99526 1.99719 1.98874 1.98874 0.01367 0.01367 0.00447
   ||g|| =      0.000412578 Max(G)=     0.000272250 Rot=13,0
   --- Orbital Update [SuperCI(PT)]
   --- Canonicalize Internal Space
   --- Canonicalize External Space
   --- SX_PT (Skipped TA=0 IT=0): ||X|| =      0.000267398 Max(X)(10,9) =     -0.000233808 
   --- SFit(Active Orbitals)

MACRO-ITERATION  11: 
   --- Inactive Energy E0 = -67.46215566 Eh
CI-ITERATION   0: 
  -106.207549995   0.005773102573 (    0.01)
CI-ITERATION   1: 
  -106.208205029   0.000036062946 (    0.01)
CI-ITERATION   2: 
  -106.208209345   0.000000247632 (    0.01)
CI-ITERATION   3: 
  -106.208209372   0.000000001333 (    0.01)
   CI-PROBLEM SOLVED
   DENSITIES MADE
   E(CAS)=  -106.208209372 Eh DE=     0.000000004
   --- Energy gap subspaces: Ext-Act = -2.469   Act-Int = 13.988
   N(occ)=  1.99824 1.99526 1.99719 1.98874 1.98874 0.01367 0.01367 0.00447
   ||g|| =      0.000443982 Max(G)=    -0.000318197 Rot=16,1
                     ---- THE CAS-SCF ENERGY   HAS CONVERGED ----
                            --- FINALIZING ORBITALS ---
                    ---- DOING ONE FINAL ITERATION FOR PRINTING ----
   --- Forming Natural Orbitals
   --- Canonicalize Internal Space
   --- Canonicalize External Space

MACRO-ITERATION  12: 
   --- Inactive Energy E0 = -67.46215566 Eh
   --- All densities will be recomputed
CI-ITERATION   0: 
  -106.207549027   0.005800141189 (    0.01)
CI-ITERATION   1: 
  -106.208199867   0.000069111235 (    0.01)
CI-ITERATION   2: 
  -106.208209325   0.000000419624 (    0.01)
CI-ITERATION   3: 
  -106.208209372   0.000000002417 (    0.01)
   CI-PROBLEM SOLVED
   DENSITIES MADE
   E(CAS)=  -106.208209372 Eh DE=     0.000000000
   --- Energy gap subspaces: Ext-Act = -2.502   Act-Int = 14.189
   N(occ)=  1.99857 1.99686 1.99625 1.98874 1.98874 0.01367 0.01367 0.00348
   ||g|| =      0.000444168 Max(G)=    -0.000309289 Rot=10,1
--------------
CASSCF RESULTS
--------------

Final CASSCF energy       : -106.208209372 Eh   -2890.0723 eV


---------------------------------------------
CAS-SCF STATES FOR BLOCK  1 MULT= 1 NROOTS= 1
---------------------------------------------

ROOT   0:  E=    -106.2082093716 Eh
      0.98470 [   783]: 22222000
      0.00442 [   769]: 22211110
      0.00261 [   779]: 22220200
      0.00261 [   754]: 22202020


--------------
DENSITY MATRIX
--------------

                  0          1          2          3          4          5    
      0       1.998566  -0.000000   0.000000   0.000000  -0.000000  -0.000000
      1      -0.000000   1.996865   0.000000   0.000000  -0.000000   0.000000
      2       0.000000   0.000000   1.996252   0.000000   0.000000   0.000000
      3       0.000000   0.000000   0.000000   1.988743  -0.000000   0.000000
      4      -0.000000  -0.000000   0.000000  -0.000000   1.988743  -0.000000
      5      -0.000000   0.000000   0.000000   0.000000  -0.000000   0.013675
      6       0.000000   0.000000   0.000000   0.000000   0.000000  -0.000000
      7      -0.000000  -0.000000   0.000000   0.000000   0.000000  -0.000000
                   6          7    
      0       0.000000  -0.000000
      1       0.000000  -0.000000
      2       0.000000   0.000000
      3       0.000000   0.000000
      4       0.000000   0.000000
      5      -0.000000  -0.000000
      6       0.013675   0.000000
      7       0.000000   0.003481
Trace of the electron density: 10.000000

-----------------
ENERGY COMPONENTS
-----------------

One electron energy          :   -225.066835660 Eh       -6124.3800 eV
Two electron energy          :     76.241252414 Eh        2074.6300 eV
Nuclear repulsion energy     :     42.617373874 Eh        1159.6777 eV
                               ----------------
                                 -106.208209372

Kinetic energy               :    117.570803367 Eh        3199.2642 eV
Potential energy             :   -223.779012739 Eh       -6089.3365 eV
Virial ratio                 :     -1.903355309 
                               ----------------
                                 -106.208209372

Core energy                  :    -67.462155663 Eh    -1835.7386 eV


----------------------------
LOEWDIN REDUCED ACTIVE MOs  
----------------------------

                      0         1         2         3         4         5   
                 -15.73627 -15.56390  -1.37449  -0.93886  -0.61121  -0.98627
                   2.00000   2.00000   1.99857   1.99686   1.99625   1.98874
                  --------  --------  --------  --------  --------  --------
 0 N  s              46.4      48.1      49.0       4.6       8.9       0.0
 0 N  pz              0.0       0.0       0.0       0.0       0.0      46.0
 0 N  px              1.9       0.5       0.9      44.8      40.7       0.0
 1 N  s              46.4      48.1      49.0       4.6       8.9       0.0
 1 N  pz              0.0       0.0       0.0       0.0       0.0      46.0
 1 N  px              1.9       0.5       0.9      44.8      40.7       0.0

                      6         7         8         9        10        11   
                  -0.98627   1.02389   1.02389   3.13220   0.63043   0.66032
                   1.98874   0.01367   0.01367   0.00348   0.00000   0.00000
                  --------  --------  --------  --------  --------  --------
 0 N  s               0.0       0.0       0.0       4.8      39.6       0.0
 0 N  pz              0.6       0.4      33.4       0.0       0.0      47.3
 0 N  px              0.0       0.0       0.0      13.7       9.2       0.0
 0 N  py             46.0      33.4       0.4       0.0       0.0       0.6
 0 N  dz2             0.0       0.0       0.0       7.9       0.3       0.0
 0 N  dxz             0.0       0.2      16.0       0.0       0.0       2.1
 0 N  dx2y2           0.0       0.0       0.0      23.6       1.0       0.0
 0 N  dxy             3.4      16.0       0.2       0.0       0.0       0.0
 1 N  s               0.0       0.0       0.0       4.8      39.6       0.0
 1 N  pz              0.6       0.4      33.4       0.0       0.0      47.3
 1 N  px              0.0       0.0       0.0      13.7       9.2       0.0
 1 N  py             46.0      33.4       0.4       0.0       0.0       0.6
 1 N  dz2             0.0       0.0       0.0       7.9       0.3       0.0
 1 N  dxz             0.0       0.2      16.0       0.0       0.0       2.1
 1 N  dx2y2           0.0       0.0       0.0      23.6       1.0       0.0
 1 N  dxy             3.4      16.0       0.2       0.0       0.0       0.0


-------------------------------------------------------------
 Forming the transition density       ... done in 0.003056 sec
-------------------------------------------------------------



==========================================
CASSCF UV, CD spectra and dipole moments
==========================================
-------------------
ABSORPTION SPECTRUM
-------------------

Center of mass           = (  0.5749,  0.0000,  0.0000)
Nuclear contribution to the dipole moment =     0.000000,    0.000000,    0.000000 au

Calculating the dipole integrals                  ... done
Transforming integrals                            ... done
Calculating the Linear Momentum integrals         ... done
Transforming integrals                            ... done
Calculating the Angular Momentum integrals        ... done
Transforming integrals                            ... done

Ground state mult:    1
Ground state block:   0
Ground state root:    0


------------------------------------------------------------------------------
                                 DIPOLE MOMENTS
------------------------------------------------------------------------------
  Root  Block           TX        TY        TZ           |T|
                      (Debye)   (Debye)   (Debye)      (Debye)
------------------------------------------------------------------------------
    0    0           -0.00000   0.00000   0.00000      0.00000

--------------
CASSCF TIMINGS
--------------

Total time                       ...        3.7 sec
Sum of individual times          ...        3.5 sec ( 95.2%)

Calculation of AO operators
   F(Core) operator              ...        0.2 sec (  4.1%)
   G(Act) operator               ...        0.1 sec (  4.0%)
   J(AO) operators               ...        0.0 sec (  0.0%)
Calculation of MO transformed quantities
   J(MO) operators               ...        0.6 sec ( 15.9%)
   (pq|rs) integrals             ...        0.0 sec (  0.0%)
   AO->MO one electron integrals ...        0.0 sec (  0.0%)
Configuration interaction steps
   CI-setup phase                ...        0.0 sec (  0.2%)
   CI-solution phase             ...        2.5 sec ( 67.9%)
   Generation of densities       ...        0.1 sec (  2.6%)
Orbital improvement steps
   Orbital gradient              ...        0.0 sec (  0.3%)
   O(1) converger                ...        0.0 sec (  0.1%)
Properties                       ...        0.0 sec (  0.2%)
   SOC integral calculation      ...        0.0 sec (  0.0%)
   SSC RMEs (incl. integrals)    ...        0.0 sec (  0.0%)
   SOC RMEs                      ...        0.0 sec (  0.0%)

-------------------------   --------------------
FINAL SINGLE POINT ENERGY      -106.208209371566
-------------------------   --------------------

Storing actual gbw-file in N2_0_1_CASSCF-10-8_def2-SVP.sp.002.gbw ... done

                            ***************************************
                            *     ORCA property calculations      *
                            ***************************************

                                    ---------------------
                                    Active property flags
                                    ---------------------
   (+) Dipole Moment


------------------------------------------------------------------------------
                       ORCA ELECTRIC PROPERTIES CALCULATION
------------------------------------------------------------------------------

Dipole Moment Calculation                       ... on
Quadrupole Moment Calculation                   ... off
Polarizability Calculation                      ... off
GBWName                                         ... N2_0_1_CASSCF-10-8_def2-SVP.sp.gbw
Electron density file                           ... N2_0_1_CASSCF-10-8_def2-SVP.sp.scfp
The origin for moment calculation is the CENTER OF MASS  = ( 0.574883,  0.000000  0.000000)

-------------
DIPOLE MOMENT
-------------
                                X             Y             Z
Electronic contribution:     -0.00000       0.00000       0.00000
Nuclear contribution   :      0.00000       0.00000       0.00000
                        -----------------------------------------
Total Dipole Moment    :     -0.00000       0.00000       0.00000
                        -----------------------------------------
Magnitude (a.u.)       :      0.00000
Magnitude (Debye)      :      0.00000



--------------------
Rotational spectrum 
--------------------
 
Rotational constants in cm-1:     0.000000     6.502206     6.502206 
Rotational constants in MHz :     0.000000 194931.227832 194931.227832 

 Dipole components along the rotational axes: 
x,y,z [a.u.] :    -0.000000     0.000000     0.000000 
x,y,z [Debye]:    -0.000000     0.000000     0.000000 

 

         *************************************************************
                                TRAJECTORY STEP   3
                RNN  :   0.73861998
         *************************************************************
---------------------------------
CARTESIAN COORDINATES (ANGSTROEM)
---------------------------------
  N      0.000000    0.000000    0.000000
  N      0.738620    0.000000    0.000000

----------------------------
CARTESIAN COORDINATES (A.U.)
----------------------------
  NO LB      ZA    FRAG     MASS         X           Y           Z
   0 N     7.0000    0    14.007    0.000000    0.000000    0.000000
   1 N     7.0000    0    14.007    1.395789    0.000000    0.000000

--------------------------------
INTERNAL COORDINATES (ANGSTROEM)
--------------------------------
 N      0   0   0     0.000000000000     0.00000000     0.00000000
 N      1   0   0     0.738619982208     0.00000000     0.00000000

---------------------------
INTERNAL COORDINATES (A.U.)
---------------------------
 N      0   0   0     0.000000000000     0.00000000     0.00000000
 N      1   0   0     1.395789483415     0.00000000     0.00000000


Diagonalization of the overlap matrix:
Smallest eigenvalue                        ... 6.532e-04
Time for diagonalization                   ...    0.000 sec
Threshold for overlap eigenvalues          ... 1.000e-08
Number of eigenvalues below threshold      ... 0
Time for construction of square roots      ...    0.001 sec
Total time needed                          ...    0.002 sec



 ... the calculation is a CASSCF calculation -I'm leaving here GOOD LUCK!!!

-------------------------------------------------------------------------------
                              ORCA-CASSCF
-------------------------------------------------------------------------------

Setting up the integral package       ... done
Building the CAS space                ... done (784 configurations for Mult=1)
----------------
GENERAL CI SETUP
----------------

Checking configurations                         ... done
Determining NSOMO,NDOMO and NVMO                ... done
Building up the tree                            ... done
Building N-1 electron tree                      ... done
Building RI configuration space                 ... done
Analyzing the RI configuration space            ... done
Determining NDOMO,NSOMO,NVMO for RI space       ... done
Determination of address arrays                 ... done
Looking for max. no of open shells              ... done
Setting up coupling coefficient container       ... Memory for address arrays  		      ... done
Make address arrays			      ... done
Memory for buffers 			      ... done
Setting up spin-function prototypes	      ... (MAXOPEN=6) 0 2 4 6 8 done
Trivial cases - DOMO's			      ... done (  0.0 MB)
Number of open shells			    ...  0
domo->virtual excitations			... done (  0.0 MB)
domo->somo excitations				... done (  0.0 MB)
somo->virtual excitations			... done (  0.0 MB)
somo->somo excitations				... done (  0.0 MB)
Number of open shells			    ...  2
domo->virtual excitations			... done (  0.0 MB)
domo->somo excitations				... done (  0.0 MB)
somo->virtual excitations			... done (  0.0 MB)
somo->somo excitations				... done (  0.0 MB)
Number of open shells			    ...  4
domo->virtual excitations			... done (  0.0 MB)
domo->somo excitations				... done (  0.0 MB)
somo->virtual excitations			... done (  0.0 MB)
somo->somo excitations				... done (  0.0 MB)
Number of open shells			    ...  6
domo->virtual excitations			... done (  0.0 MB)
domo->somo excitations				... done (  0.0 MB)
somo->virtual excitations			... done (  0.1 MB)
somo->somo excitations				... done (  0.1 MB)
Coupling container construction done
done
Now recording sub-block dimensions              ... done
Memory used for TGeneralCI arrays =     0.2 MB
  Original space  =     0.0
  RI       space  =     0.0
  Address arrays  =     0.1
  Coupling coeffs =     0.1
Multiplicity                          ...       1
# of electrons                        ...      10
# of orbitals                         ...       8
# of roots requested                  ...       1
Configuration space:
# of configurations                   ...     784
# of CSF's                            ...    1176
# of rejected configurations          ...       0
Min. # of SOMOs                       ...       0
Max. # of SOMOs                       ...       6
Max. # of DOMOs                       ...       5
Max. # of VMOs                        ...       3
RI Configuration space:
# of configurations                   ...     784
# of CSF's                            ...    1176
# of rejected configurations          ...       0
Min. # of SOMOs                       ...       0
Max. # of SOMOs                       ...       6
Max. # of DOMOs                       ...       5
Max. # of VMOs                        ...       3
(N-1) Electron Configuration space:
# of configurations                   ...    1016
CSF dimensions:
      0 SOMOs give     1 CSFs
      2 SOMOs give     1 CSFs
      4 SOMOs give     2 CSFs
      6 SOMOs give     5 CSFs


SYSTEM-SPECIFIC SETTINGS:
Number of active electrons          ...   10
Number of active orbitals           ...    8
Total number of electrons           ...   14
Total number of orbitals            ...   28

Determined orbital ranges:
   Internal       0 -    1 (   2 orbitals)
   Active         2 -    9 (   8 orbitals)
   External      10 -   27 (  18 orbitals)
Number of rotation parameters      ...    196

CI-STEP:
CI strategy                         ... General CI
Number of multiplicity blocks       ...    1
BLOCK  1 WEIGHT=   1.0000
  Multiplicity                      ...    1
  #(Configurations)                 ...  784
  #(CSFs)                           ... 1176
  #(Roots)                          ...    1
    ROOT=0 WEIGHT=    1.000000

  PrintLevel                        ...    1
  N(GuessMat)                       ...       512
  MaxDim(CI)                        ...        10
  MaxIter(CI)                       ...        64
  Energy Tolerance CI               ...  2.50e-09
  Residual Tolerance CI             ...  2.50e-09
  Shift(CI)                         ...  1.00e-04

INTEGRAL-TRANSFORMATION-STEP:
  Algorithm                         ... EXACT

ORBITAL-IMPROVEMENT-STEP:
  Algorithm                         ... SuperCI(PT)
  Default Parametrization           ... CAYLEY
  Act-Act rotations                 ... depends on algorithm used

  Note: SuperCI(PT) will ignore FreezeIE, FreezeAct and FreezeGrad. In general Default settings are encouraged.
        In conjunction with ShiftUp, ShiftDn or GradScaling the performance of SuperCI(PT) is less optimal.  

  MaxRot                            ... 2.00e-01 
  Max. no of vectors (DIIS)         ... 15
  DThresh (cut-off) metric          ... 1.00e-06
  Switch step at gradient           ...  3.00e-02 
  Switch step at iteration          ...        50   
  Switch step to                    ... SuperCI(PT)    

SCF-SETTINGS:
  Incremental                       ... on
  RIJCOSX approximation             ... off
  RI-JK approximation               ... off
  AO integral handling              ... DIRECT
  Integral Neglect Thresh           ...  2.50e-11
  Primitive cutoff TCut             ...  2.50e-12
  Energy convergence tolerance      ...  2.50e-08
  Orbital gradient convergence      ...  2.50e-04
  Max. number of iterations         ...        75  


FINAL ORBITALS:
  Active   Orbitals                 ... natural 
  Internal Orbitals                 ... canonical 
  External Orbitals                 ... canonical 

------------------
CAS-SCF ITERATIONS
------------------


MACRO-ITERATION   1: 
   --- Inactive Energy E0 = -69.30027170 Eh
CI-ITERATION   0: 
  -106.467341663   0.008865618579 (    0.01)
CI-ITERATION   1: 
  -106.468628505   0.000198742127 (    0.01)
CI-ITERATION   2: 
  -106.468665713   0.000001655850 (    0.01)
CI-ITERATION   3: 
  -106.468665944   0.000000020376 (    0.01)
CI-ITERATION   4: 
  -106.468665948   0.000000000285 (    0.01)
   CI-PROBLEM SOLVED
   DENSITIES MADE

                 <<<<<<<<<<<<<<<<<<INITIAL CI STATE CHECK>>>>>>>>>>>>>>>>>>

BLOCK  1 MULT= 1 NROOTS= 1 
ROOT   0:  E=    -106.4686659476 Eh
      0.95447 [   783]: 22222000
      0.01903 [   736]: 22122001
      0.00746 [   769]: 22211110
      0.00463 [   779]: 22220200
      0.00463 [   754]: 22202020

                 <<<<<<<<<<<<<<<<<<INITIAL CI STATE CHECK>>>>>>>>>>>>>>>>>>

   E(CAS)=  -106.468665948 Eh DE=     0.000000000
   --- Energy gap subspaces: Ext-Act = -1.072   Act-Int = 13.347
   N(occ)=  1.99775 1.99423 1.97568 1.97960 1.97960 0.02350 0.02350 0.02612
   ||g|| =     13.660198043 Max(G)=    13.548226717 Rot=9,1
   --- Orbital Update [SuperCI(PT)]
   --- Canonicalize Internal Space
   --- Canonicalize External Space
   --- SX_PT (Skipped TA=0 IT=0): ||X|| =      0.304508749 Max(X)(9,1) =      0.208500093 
   --- SFit(Active Orbitals)

MACRO-ITERATION   2: 
   --- Inactive Energy E0 = -71.15534261 Eh
CI-ITERATION   0: 
  -107.963779205   0.004973674243 (    0.01)
CI-ITERATION   1: 
  -107.964402531   0.000045063247 (    0.01)
CI-ITERATION   2: 
  -107.964408981   0.000000492278 (    0.01)
CI-ITERATION   3: 
  -107.964409041   0.000000007198 (    0.01)
CI-ITERATION   4: 
  -107.964409042   0.000000000097 (    0.01)
   CI-PROBLEM SOLVED
   DENSITIES MADE
   E(CAS)=  -107.964409042 Eh DE=    -1.495743095
   --- Energy gap subspaces: Ext-Act = -1.845   Act-Int = 14.040
   N(occ)=  1.99810 1.99549 1.99477 1.98152 1.98152 0.02149 0.02149 0.00562
   ||g|| =      1.156744744 Max(G)=     0.775766709 Rot=27,1
   --- Orbital Update [SuperCI(PT)]
   --- Canonicalize Internal Space
   --- Canonicalize External Space
   --- SX_PT (Skipped TA=0 IT=0): ||X|| =      0.113887113 Max(X)(3,1) =      0.090681678 
   --- SFit(Active Orbitals)

MACRO-ITERATION   3: 
   --- Inactive Energy E0 = -71.35698026 Eh
CI-ITERATION   0: 
  -107.977641491   0.005359686348 (    0.01)
CI-ITERATION   1: 
  -107.978317408   0.000040300355 (    0.01)
CI-ITERATION   2: 
  -107.978323187   0.000000381262 (    0.01)
CI-ITERATION   3: 
  -107.978323234   0.000000003908 (    0.01)
CI-ITERATION   4: 
  -107.978323234   0.000000000035 (    0.01)
   CI-PROBLEM SOLVED
   DENSITIES MADE
   E(CAS)=  -107.978323234 Eh DE=    -0.013914192
   --- Energy gap subspaces: Ext-Act = -1.929   Act-Int = 14.112
   N(occ)=  1.99807 1.99543 1.99487 1.98162 1.98162 0.02151 0.02151 0.00538
   ||g|| =      0.359541604 Max(G)=     0.237652788 Rot=27,1
   --- Orbital Update [SuperCI(PT)]
   --- Canonicalize Internal Space
   --- Canonicalize External Space
   --- SX_PT (Skipped TA=0 IT=0): ||X|| =      0.049112679 Max(X)(11,9) =     -0.030535808 
   --- SFit(Active Orbitals)

MACRO-ITERATION   4: 
   --- Inactive Energy E0 = -71.33822515 Eh
CI-ITERATION   0: 
  -107.979648684   0.005791415724 (    0.01)
CI-ITERATION   1: 
  -107.980378665   0.000039667500 (    0.01)
CI-ITERATION   2: 
  -107.980384409   0.000000350269 (    0.01)
CI-ITERATION   3: 
  -107.980384452   0.000000003193 (    0.01)
CI-ITERATION   4: 
  -107.980384453   0.000000000024 (    0.01)
   CI-PROBLEM SOLVED
   DENSITIES MADE
   E(CAS)=  -107.980384453 Eh DE=    -0.002061218
   --- Energy gap subspaces: Ext-Act = -2.000   Act-Int = 14.131
   N(occ)=  1.99800 1.99558 1.99486 1.98164 1.98164 0.02156 0.02156 0.00516
   ||g|| =      0.075124720 Max(G)=     0.042296646 Rot=27,1
   --- Orbital Update [SuperCI(PT)]
   --- Canonicalize Internal Space
   --- Canonicalize External Space
   --- SX_PT (Skipped TA=0 IT=0): ||X|| =      0.023083865 Max(X)(10,9) =     -0.019086329 
   --- SFit(Active Orbitals)

MACRO-ITERATION   5: 
   --- Inactive Energy E0 = -71.32516727 Eh
CI-ITERATION   0: 
  -107.979739284   0.006217769458 (    0.01)
CI-ITERATION   1: 
  -107.980526645   0.000040837862 (    0.01)
CI-ITERATION   2: 
  -107.980532657   0.000000350120 (    0.01)
CI-ITERATION   3: 
  -107.980532700   0.000000003207 (    0.01)
CI-ITERATION   4: 
  -107.980532700   0.000000000023 (    0.01)
   CI-PROBLEM SOLVED
   DENSITIES MADE
   E(CAS)=  -107.980532700 Eh DE=    -0.000148247
   --- Energy gap subspaces: Ext-Act = -2.029   Act-Int = 14.139
[...]
Number of open shells			    ...  4
domo->virtual excitations			... done (  0.0 MB)
domo->somo excitations				... done (  0.0 MB)
somo->virtual excitations			... done (  0.0 MB)
somo->somo excitations				... done (  0.0 MB)
Number of open shells			    ...  6
domo->virtual excitations			... done (  0.0 MB)
domo->somo excitations				... done (  0.0 MB)
somo->virtual excitations			... done (  0.1 MB)
somo->somo excitations				... done (  0.1 MB)
Coupling container construction done
done
Now recording sub-block dimensions              ... done
Memory used for TGeneralCI arrays =     0.2 MB
  Original space  =     0.0
  RI       space  =     0.0
  Address arrays  =     0.1
  Coupling coeffs =     0.1
Multiplicity                          ...       1
# of electrons                        ...      10
# of orbitals                         ...       8
# of roots requested                  ...       1
Configuration space:
# of configurations                   ...     784
# of CSF's                            ...    1176
# of rejected configurations          ...       0
Min. # of SOMOs                       ...       0
Max. # of SOMOs                       ...       6
Max. # of DOMOs                       ...       5
Max. # of VMOs                        ...       3
RI Configuration space:
# of configurations                   ...     784
# of CSF's                            ...    1176
# of rejected configurations          ...       0
Min. # of SOMOs                       ...       0
Max. # of SOMOs                       ...       6
Max. # of DOMOs                       ...       5
Max. # of VMOs                        ...       3
(N-1) Electron Configuration space:
# of configurations                   ...    1016
CSF dimensions:
      0 SOMOs give     1 CSFs
      2 SOMOs give     1 CSFs
      4 SOMOs give     2 CSFs
      6 SOMOs give     5 CSFs


SYSTEM-SPECIFIC SETTINGS:
Number of active electrons          ...   10
Number of active orbitals           ...    8
Total number of electrons           ...   14
Total number of orbitals            ...   28

Determined orbital ranges:
   Internal       0 -    1 (   2 orbitals)
   Active         2 -    9 (   8 orbitals)
   External      10 -   27 (  18 orbitals)
Number of rotation parameters      ...    196

CI-STEP:
CI strategy                         ... General CI
Number of multiplicity blocks       ...    1
BLOCK  1 WEIGHT=   1.0000
  Multiplicity                      ...    1
  #(Configurations)                 ...  784
  #(CSFs)                           ... 1176
  #(Roots)                          ...    1
    ROOT=0 WEIGHT=    1.000000

  PrintLevel                        ...    1
  N(GuessMat)                       ...       512
  MaxDim(CI)                        ...        10
  MaxIter(CI)                       ...        64
  Energy Tolerance CI               ...  2.50e-09
  Residual Tolerance CI             ...  2.50e-09
  Shift(CI)                         ...  1.00e-04

INTEGRAL-TRANSFORMATION-STEP:
  Algorithm                         ... EXACT

ORBITAL-IMPROVEMENT-STEP:
  Algorithm                         ... SuperCI(PT)
  Default Parametrization           ... CAYLEY
  Act-Act rotations                 ... depends on algorithm used

  Note: SuperCI(PT) will ignore FreezeIE, FreezeAct and FreezeGrad. In general Default settings are encouraged.
        In conjunction with ShiftUp, ShiftDn or GradScaling the performance of SuperCI(PT) is less optimal.  

  MaxRot                            ... 2.00e-01 
  Max. no of vectors (DIIS)         ... 15
  DThresh (cut-off) metric          ... 1.00e-06
  Switch step at gradient           ...  3.00e-02 
  Switch step at iteration          ...        50   
  Switch step to                    ... SuperCI(PT)    

SCF-SETTINGS:
  Incremental                       ... on
  RIJCOSX approximation             ... off
  RI-JK approximation               ... off
  AO integral handling              ... DIRECT
  Integral Neglect Thresh           ...  2.50e-11
  Primitive cutoff TCut             ...  2.50e-12
  Energy convergence tolerance      ...  2.50e-08
  Orbital gradient convergence      ...  2.50e-04
  Max. number of iterations         ...        75  


FINAL ORBITALS:
  Active   Orbitals                 ... natural 
  Internal Orbitals                 ... canonical 
  External Orbitals                 ... canonical 

------------------
CAS-SCF ITERATIONS
------------------


MACRO-ITERATION   1: 
   --- Inactive Energy E0 = -88.76792508 Eh
CI-ITERATION   0: 
  -108.665850049   0.000000000783 (    0.01)
   CI-PROBLEM SOLVED
   DENSITIES MADE

                 <<<<<<<<<<<<<<<<<<INITIAL CI STATE CHECK>>>>>>>>>>>>>>>>>>

BLOCK  1 MULT= 1 NROOTS= 1 
ROOT   0:  E=    -108.6658500485 Eh
      0.08333 [   769]: 22211110
      0.08333 [   733]: 22121101
      0.08333 [   718]: 22112011
      0.08333 [   708]: 22110211
      0.08333 [   693]: 22101121
      0.08333 [   657]: 22011112
      0.06250 [   783]: 22222000
      0.06250 [   779]: 22220200
      0.06250 [   754]: 22202020
      0.06250 [   744]: 22200220
      0.06250 [   682]: 22022002
      0.06250 [   672]: 22020202
      0.06250 [   647]: 22002022
      0.06250 [   643]: 22000222

                 <<<<<<<<<<<<<<<<<<INITIAL CI STATE CHECK>>>>>>>>>>>>>>>>>>

   E(CAS)=  -108.665850049 Eh DE=     0.000000000
   --- Energy gap subspaces: Ext-Act = 0.928   Act-Int = 14.698
   N(occ)=  2.00000 2.00000 1.00001 1.00000 1.00000 1.00000 1.00000 0.99999
   ||g|| =      0.000107563 Max(G)=    -0.000052576 Rot=17,4
                     ---- THE CAS-SCF GRADIENT HAS CONVERGED ----
                            --- FINALIZING ORBITALS ---
                    ---- DOING ONE FINAL ITERATION FOR PRINTING ----
   --- Forming Natural Orbitals
   --- Canonicalize Internal Space
   --- Canonicalize External Space

MACRO-ITERATION   2: 
   --- Inactive Energy E0 = -88.76792508 Eh
   --- All densities will be recomputed
CI-ITERATION   0: 
  -108.665850049   0.000000000783 (    0.01)
   CI-PROBLEM SOLVED
   DENSITIES MADE
   E(CAS)=  -108.665850049 Eh DE=     0.000000000
   --- Energy gap subspaces: Ext-Act = 0.928   Act-Int = 14.698
   N(occ)=  2.00000 2.00000 1.00001 1.00000 1.00000 1.00000 1.00000 0.99999
   ||g|| =      0.000107564 Max(G)=    -0.000052576 Rot=17,4
--------------
CASSCF RESULTS
--------------

Final CASSCF energy       : -108.665850049 Eh   -2956.9481 eV


---------------------------------------------
CAS-SCF STATES FOR BLOCK  1 MULT= 1 NROOTS= 1
---------------------------------------------

ROOT   0:  E=    -108.6658500485 Eh
      0.08333 [   769]: 22211110
      0.08333 [   733]: 22121101
      0.08333 [   718]: 22112011
      0.08333 [   708]: 22110211
      0.08333 [   693]: 22101121
      0.08333 [   657]: 22011112
      0.06250 [   783]: 22222000
      0.06250 [   779]: 22220200
      0.06250 [   754]: 22202020
      0.06250 [   744]: 22200220
      0.06250 [   682]: 22022002
      0.06250 [   672]: 22020202
      0.06250 [   647]: 22002022
      0.06250 [   643]: 22000222


--------------
DENSITY MATRIX
--------------

                  0          1          2          3          4          5    
      0       2.000000  -0.000000   0.000000  -0.000000   0.000000   0.000000
      1      -0.000000   2.000000   0.000000   0.000000  -0.000000  -0.000000
      2       0.000000   0.000000   1.000011   0.000000  -0.000000   0.000000
      3      -0.000000   0.000000   0.000000   1.000001  -0.000000  -0.000000
      4       0.000000  -0.000000  -0.000000  -0.000000   1.000001  -0.000000
      5       0.000000  -0.000000   0.000000  -0.000000  -0.000000   0.999999
      6       0.000000   0.000000  -0.000000  -0.000000   0.000000   0.000000
      7      -0.000000   0.000000   0.000000   0.000000   0.000000   0.000000
                   6          7    
      0       0.000000  -0.000000
      1       0.000000   0.000000
      2      -0.000000   0.000000
      3      -0.000000   0.000000
      4       0.000000   0.000000
      5       0.000000   0.000000
      6       0.999999  -0.000000
      7      -0.000000   0.999989
Trace of the electron density: 10.000000

-----------------
ENERGY COMPONENTS
-----------------

One electron energy          :   -150.322385241 Eh       -4090.4801 eV
Two electron energy          :     40.356972573 Eh        1098.1691 eV
Nuclear repulsion energy     :      1.299562620 Eh          35.3629 eV
                               ----------------
                                 -108.665850049

Kinetic energy               :    108.665847209 Eh        2956.9480 eV
Potential energy             :   -217.331697257 Eh       -5913.8961 eV
Virial ratio                 :     -2.000000026 
                               ----------------
                                 -108.665850049

Core energy                  :    -88.767925083 Eh    -2415.4980 eV


----------------------------
LOEWDIN REDUCED ACTIVE MOs  
----------------------------

                      0         1         2         3         4         5   
                 -15.62362 -15.62344  -0.92552  -0.92570  -0.17882  -0.17882
                   2.00000   2.00000   2.00000   2.00000   1.00001   1.00000
                  --------  --------  --------  --------  --------  --------
 0 N  s              50.0      50.0      50.0      50.0       0.0       0.0
 0 N  pz              0.0       0.0       0.0       0.0       0.0      47.6
 0 N  px              0.0       0.0       0.0       0.0      50.0       0.0
 1 N  s              50.0      50.0      50.0      50.0       0.0       0.0
 1 N  pz              0.0       0.0       0.0       0.0       0.0      47.6
 1 N  px              0.0       0.0       0.0       0.0      50.0       0.0

                      6         7         8         9        10        11   
                  -0.17882  -0.17882  -0.17882  -0.17882   0.74881   0.74881
                   1.00000   1.00000   1.00000   0.99999   0.00000   0.00000
                  --------  --------  --------  --------  --------  --------
 0 N  s               0.0       0.0       0.0       0.0      50.0      50.0
 0 N  pz              2.4       2.4      47.6       0.0       0.0       0.0
 0 N  px              0.0       0.0       0.0      50.0       0.0       0.0
 0 N  py             47.6      47.6       2.4       0.0       0.0       0.0
 1 N  s               0.0       0.0       0.0       0.0      50.0      50.0
 1 N  pz              2.4       2.4      47.6       0.0       0.0       0.0
 1 N  px              0.0       0.0       0.0      50.0       0.0       0.0
 1 N  py             47.6      47.6       2.4       0.0       0.0       0.0


-------------------------------------------------------------
 Forming the transition density       ... done in 0.002980 sec
-------------------------------------------------------------



==========================================
CASSCF UV, CD spectra and dipole moments
==========================================
-------------------
ABSORPTION SPECTRUM
-------------------

Center of mass           = ( 18.8525,  0.0000,  0.0000)
Nuclear contribution to the dipole moment =     0.000000,    0.000000,    0.000000 au

Calculating the dipole integrals                  ... done
Transforming integrals                            ... done
Calculating the Linear Momentum integrals         ... done
Transforming integrals                            ... done
Calculating the Angular Momentum integrals        ... done
Transforming integrals                            ... done

Ground state mult:    1
Ground state block:   0
Ground state root:    0


------------------------------------------------------------------------------
                                 DIPOLE MOMENTS
------------------------------------------------------------------------------
  Root  Block           TX        TY        TZ           |T|
                      (Debye)   (Debye)   (Debye)      (Debye)
------------------------------------------------------------------------------
    0    0           -0.00000  -0.00000  -0.00000      0.00000

--------------
CASSCF TIMINGS
--------------

Total time                       ...        0.5 sec
Sum of individual times          ...        0.3 sec ( 74.9%)

Calculation of AO operators
   F(Core) operator              ...        0.0 sec (  1.9%)
   G(Act) operator               ...        0.0 sec (  1.7%)
   J(AO) operators               ...        0.0 sec (  0.0%)
Calculation of MO transformed quantities
   J(MO) operators               ...        0.1 sec ( 12.0%)
   (pq|rs) integrals             ...        0.0 sec (  0.0%)
   AO->MO one electron integrals ...        0.0 sec (  0.0%)
Configuration interaction steps
   CI-setup phase                ...        0.0 sec (  1.4%)
   CI-solution phase             ...        0.2 sec ( 52.2%)
   Generation of densities       ...        0.0 sec (  4.0%)
Orbital improvement steps
   Orbital gradient              ...        0.0 sec (  0.4%)
Properties                       ...        0.0 sec (  1.2%)
   SOC integral calculation      ...        0.0 sec (  0.0%)
   SSC RMEs (incl. integrals)    ...        0.0 sec (  0.0%)
   SOC RMEs                      ...        0.0 sec (  0.0%)

-------------------------   --------------------
FINAL SINGLE POINT ENERGY      -108.665850048512
-------------------------   --------------------

Storing actual gbw-file in N2_0_1_CASSCF-10-8_def2-SVP.sp.020.gbw ... done

                            ***************************************
                            *     ORCA property calculations      *
                            ***************************************

                                    ---------------------
                                    Active property flags
                                    ---------------------
   (+) Dipole Moment


------------------------------------------------------------------------------
                       ORCA ELECTRIC PROPERTIES CALCULATION
------------------------------------------------------------------------------

Dipole Moment Calculation                       ... on
Quadrupole Moment Calculation                   ... off
Polarizability Calculation                      ... off
GBWName                                         ... N2_0_1_CASSCF-10-8_def2-SVP.sp.gbw
Electron density file                           ... N2_0_1_CASSCF-10-8_def2-SVP.sp.scfp
The origin for moment calculation is the CENTER OF MASS  = (18.852497,  0.000000  0.000000)

-------------
DIPOLE MOMENT
-------------
                                X             Y             Z
Electronic contribution:     -0.00000      -0.00000      -0.00000
Nuclear contribution   :      0.00000       0.00000       0.00000
                        -----------------------------------------
Total Dipole Moment    :     -0.00000      -0.00000      -0.00000
                        -----------------------------------------
Magnitude (a.u.)       :      0.00000
Magnitude (Debye)      :      0.00000



--------------------
Rotational spectrum 
--------------------
 
Rotational constants in cm-1:     0.000000     0.006046     0.006046 
Rotational constants in MHz :     0.000000   181.260207   181.260207 

 Dipole components along the rotational axes: 
x,y,z [a.u.] :    -0.000000    -0.000000    -0.000000 
x,y,z [Debye]:    -0.000000    -0.000000    -0.000000 

 
                              **** TRAJECTORY DONE ***

                         SUMMARY OF THE CALCULATED SURFACE

------------------
TRAJECTORY RESULTS
------------------

Column   1: RNN

The Calculated Surface using the 'Actual Energy'
   0.50118723 -103.07284367
   0.60842987 -106.20820937
   0.73861998 -107.98053851
   0.89666781 -108.78442744
   1.08853427 -109.00020076
   1.32145577 -108.92878278
   1.60421716 -108.78282903
   1.94748304 -108.68766066
   2.36419999 -108.66784812
   2.87008485 -108.66640856
   3.48421754 -108.66612341
   4.22976062 -108.66589760
   5.13483291 -108.66585389
   6.23357002 -108.66585109
   7.56741181 -108.66585037
   9.18666532 -108.66585015
  11.15240214 -108.66585008
  13.53876180 -108.66585006
  16.43574799 -108.66585005
  19.95262315 -108.66585005

                        *******************************
                        *   FIT OF THE ACT-ENERGY PES *
                        *******************************
-------------------------------
POTENTIAL ENERGY SURFACE =   0
-------------------------------

Minimum found after 12 iterations
Equilibrium distance and its energy from the interpolated PES:
  Re      =   1.10455 Angstroem  (  2.08730 Bohr)
  E(Re)   =  -109.000772 Eh 
  dE/dR   = -3.657e-08 (-5.687e+00 CHEB)
  d2E/dR2 =    1.220823 (  21.253648 CHEB) (   0.331468 NUM)
  d3E/dR3 =   -2.662957 ( -76.766019 CHEB)

Spectroscopic constants:
  we =    2146.8 cm**-1 (based on SPLINE)
  we =    8957.2 cm**-1 (based on CHEB)
  we =    1118.6 cm**-1 (based on NUM)

Performing Morse fit ...
Morse-Fit Results:
 Te(adiabatic)   =    3950.9 cm**-1         =  0.490 eV
 d2E/dR**2 (Morse)=      1.357386293 
 d3E/dR**3 (Morse)=     -5.913380537 
 d4E/dR**4 (Morse)=     20.036586073 
 E0               =   -108.982770659 Eh  RMS=6.77e-06
 Re               =   1.10790 Angstroem      =  2.09363 Bohr RMS=8.39e-06)
 De(Morse)        =   8.75794 eV             =  70637.5 cm**-1 RMS=9.16e-06
 D0(Morse)        =   8.61761 eV
 beta             =   1.45215 au          RMS=1.34e-05
 we               =   2263.6 cm**-1
 wexe             =     18.1 cm**-1
 Displacement   =    0.0033 Angstroem      =  0.00633 Bohr

The Calculated Surface using the SCF energy
   0.50118723 -103.07284367
   0.60842987 -106.20820937
   0.73861998 -107.98053851
   0.89666781 -108.78442744
   1.08853427 -109.00020076
   1.32145577 -108.92878278
   1.60421716 -108.78282903
   1.94748304 -108.68766066
   2.36419999 -108.66784812
   2.87008485 -108.66640856
   3.48421754 -108.66612341
   4.22976062 -108.66589760
   5.13483291 -108.66585389
   6.23357002 -108.66585109
   7.56741181 -108.66585037
   9.18666532 -108.66585015
  11.15240214 -108.66585008
  13.53876180 -108.66585006
  16.43574799 -108.66585005
  19.95262315 -108.66585005

                        *******************************
                        *       FIT OF THE SCF PES    *
                        *******************************
-------------------------------
POTENTIAL ENERGY SURFACE =   0
-------------------------------

Minimum found after 12 iterations
Equilibrium distance and its energy from the interpolated PES:
  Re      =   1.10455 Angstroem  (  2.08730 Bohr)
  E(Re)   =  -109.000772 Eh 
  dE/dR   = -3.657e-08 (-5.687e+00 CHEB)
  d2E/dR2 =    1.220823 (  21.253648 CHEB) (   0.331468 NUM)
  d3E/dR3 =   -2.662957 ( -76.766019 CHEB)

Spectroscopic constants:
  we =    2146.8 cm**-1 (based on SPLINE)
  we =    8957.2 cm**-1 (based on CHEB)
  we =    1118.6 cm**-1 (based on NUM)

Performing Morse fit ...
Morse-Fit Results:
 Te(adiabatic)   =    3950.9 cm**-1         =  0.490 eV
 d2E/dR**2 (Morse)=      1.357386293 
 d3E/dR**3 (Morse)=     -5.913380537 
 d4E/dR**4 (Morse)=     20.036586073 
 E0               =   -108.982770659 Eh  RMS=6.77e-06
 Re               =   1.10790 Angstroem      =  2.09363 Bohr RMS=8.39e-06)
 De(Morse)        =   8.75794 eV             =  70637.5 cm**-1 RMS=9.16e-06
 D0(Morse)        =   8.61761 eV
 beta             =   1.45215 au          RMS=1.34e-05
 we               =   2263.6 cm**-1
 wexe             =     18.1 cm**-1
 Displacement   =    0.0033 Angstroem      =  0.00633 Bohr


Timings for individual modules:

Sum of individual times         ...      105.648 sec (=   1.761 min)
GTO integral calculation        ...        4.687 sec (=   0.078 min)   4.4 %
SCF iterations                  ...        0.910 sec (=   0.015 min)   0.9 %
CASSCF iterations               ...      100.051 sec (=   1.668 min)  94.7 %
                             ****ORCA TERMINATED NORMALLY****
TOTAL RUN TIME: 0 days 0 hours 1 minutes 47 seconds 907 msec
