
                                 *****************
                                 * O   R   C   A *
                                 *****************

           --- An Ab Initio, DFT and Semiempirical electronic structure package ---

                  #######################################################
                  #                        -***-                        #
                  #          Department of theory and spectroscopy      #
                  #               Directorship: Frank Neese             #
                  #        Max Planck Institute fuer Kohlenforschung    #
                  #                Kaiser Wilhelm Platz 1               #
                  #                 D-45470 Muelheim/Ruhr               #
                  #                      Germany                        #
                  #                                                     #
                  #                  All rights reserved                #
                  #                        -***-                        #
                  #######################################################


                         Program Version 4.2.0 -  RELEASE  -


 With contributions from (in alphabetic order):
   Daniel Aravena         : Magnetic Suceptibility
   Michael Atanasov       : Ab Initio Ligand Field Theory (pilot matlab implementation)
   Alexander A. Auer      : GIAO ZORA, VPT2
   Ute Becker             : Parallelization
   Giovanni Bistoni       : ED, misc. LED, open-shell LED, HFLED
   Martin Brehm           : Molecular dynamics
   Dmytro Bykov           : SCF Hessian
   Vijay G. Chilkuri      : MRCI spin determinant printing, contributions to CSF-ICE
   Dipayan Datta          : RHF DLPNO-CCSD density
   Achintya Kumar Dutta   : EOM-CC, STEOM-CC
   Dmitry Ganyushin       : Spin-Orbit,Spin-Spin,Magnetic field MRCI
   Miquel Garcia          : C-PCM Hessian, Gaussian charge scheme
   Yang Guo               : DLPNO-NEVPT2, CIM, IAO-localization
   Andreas Hansen         : Spin unrestricted coupled pair/coupled cluster methods
   Benjamin Helmich-Paris : CASSCF linear response (MC-RPA)
   Lee Huntington         : MR-EOM, pCC
   Robert Izsak           : Overlap fitted RIJCOSX, COSX-SCS-MP3, EOM
   Christian Kollmar      : KDIIS, OOCD, Brueckner-CCSD(T), CCSD density
   Simone Kossmann        : Meta GGA functionals, TD-DFT gradient, OOMP2, MP2 Hessian
   Martin Krupicka        : AUTO-CI
   Lucas Lang             : DCDCAS
   Dagmar Lenk            : GEPOL surface, SMD
   Dimitrios Liakos       : Extrapolation schemes; Compound Job, initial MDCI parallelization
   Dimitrios Manganas     : Further ROCIS development; embedding schemes
   Dimitrios Pantazis     : SARC Basis sets
   Taras Petrenko         : DFT Hessian,TD-DFT gradient, ASA, ECA, R-Raman, ABS, FL, XAS/XES, NRVS
   Peter Pinski           : DLPNO-MP2, DLPNO-MP2 Gradient
   Christoph Reimann      : Effective Core Potentials
   Marius Retegan         : Local ZFS, SOC
   Christoph Riplinger    : Optimizer, TS searches, QM/MM, DLPNO-CCSD(T), (RO)-DLPNO pert. Triples
   Tobias Risthaus        : Range-separated hybrids, TD-DFT gradient, RPA, STAB
   Michael Roemelt        : Original ROCIS implementation
   Masaaki Saitow         : Open-shell DLPNO-CCSD energy and density
   Barbara Sandhoefer     : DKH picture change effects
   Avijit Sen             : IP-ROCIS
   Kantharuban Sivalingam : CASSCF convergence, NEVPT2, FIC-MRCI
   Bernardo de Souza      : ESD, SOC TD-DFT
   Georgi Stoychev        : AutoAux, RI-MP2 NMR
   Willem Van den Heuvel  : Paramagnetic NMR
   Boris Wezisla          : Elementary symmetry handling
   Frank Wennmohs         : Technical directorship


 We gratefully acknowledge several colleagues who have allowed us to
 interface, adapt or use parts of their codes:
   Stefan Grimme, W. Hujo, H. Kruse,             : VdW corrections, initial TS optimization,
                  C. Bannwarth                     DFT functionals, gCP, sTDA/sTD-DF
   Ed Valeev, F. Pavosevic, A. Kumar             : LibInt (2-el integral package), F12 methods
   Garnet Chan, S. Sharma, J. Yang, R. Olivares  : DMRG
   Ulf Ekstrom                                   : XCFun DFT Library
   Mihaly Kallay                                 : mrcc  (arbitrary order and MRCC methods)
   Andreas Klamt, Michael Diedenhofen            : otool_cosmo (COSMO solvation model)
   Jiri Pittner, Ondrej Demel                    : Mk-CCSD
   Frank Weinhold                                : gennbo (NPA and NBO analysis)
   Christopher J. Cramer and Donald G. Truhlar   : smd solvation model
   Lars Goerigk                                  : TD-DFT with DH, B97 family of functionals
   V. Asgeirsson, H. Jonsson                     : NEB implementation
   FAccTs GmbH                                   : IRC, NEB, NEB-TS, Multilevel, MM, QM/MM, CI optimization
   S Lehtola, MJT Oliveira, MAL Marques          : LibXC Library


 Your calculation uses the libint2 library for the computation of 2-el integrals
 For citations please refer to: http://libint.valeyev.net

 Your ORCA version has been built with support for libXC version: 4.2.3
 For citations please refer to: https://tddft.org/programs/libxc/

 This ORCA versions uses:
   CBLAS   interface :  Fast vector & matrix operations
   LAPACKE interface :  Fast linear algebra routines
   SCALAPACK package :  Parallel linear algebra routines


----- Orbital basis set information -----
Your calculation utilizes the basis: def2-SVP
   F. Weigend and R. Ahlrichs, Phys. Chem. Chem. Phys. 7, 3297 (2005).

================================================================================
                                        WARNINGS
                       Please study these warnings very carefully!
================================================================================


INFO   : the flag for use of LIBINT has been found!

================================================================================
                                       INPUT FILE
================================================================================
NAME = N_0_4_CASSCF-5-4_def2-SVP.sp.inp
|  1> !uhf def2-svp tightscf
|  2> !normalprint
|  3> 
|  4> %scf
|  5>   maxiter 500
|  6> end
|  7> 
|  8> %casscf
|  9>   nel 5
| 10>   norb 4
| 11> end
| 12> 
| 13> *xyz 0 4
| 14> N 0 0 0
| 15> *
| 16> 
| 17>                          ****END OF INPUT****
================================================================================

                       ****************************
                       * Single Point Calculation *
                       ****************************

---------------------------------
CARTESIAN COORDINATES (ANGSTROEM)
---------------------------------
  N      0.000000    0.000000    0.000000

----------------------------
CARTESIAN COORDINATES (A.U.)
----------------------------
  NO LB      ZA    FRAG     MASS         X           Y           Z
   0 N     7.0000    0    14.007    0.000000    0.000000    0.000000

--------------------------------
INTERNAL COORDINATES (ANGSTROEM)
--------------------------------
 N      0   0   0     0.000000000000     0.00000000     0.00000000

---------------------------
INTERNAL COORDINATES (A.U.)
---------------------------
 N      0   0   0     0.000000000000     0.00000000     0.00000000

---------------------
BASIS SET INFORMATION
---------------------
There are 1 groups of distinct atoms

 Group   1 Type N   : 7s4p1d contracted to 3s2p1d pattern {511/31/1}

Atom   0N    basis set group =>   1
------------------------------------------------------------------------------
                           ORCA GTO INTEGRAL CALCULATION
------------------------------------------------------------------------------

                         BASIS SET STATISTICS AND STARTUP INFO

 # of primitive gaussian shells          ...   12
 # of primitive gaussian functions       ...   24
 # of contracted shells                  ...    6
 # of contracted basis functions         ...   14
 Highest angular momentum                ...    2
 Maximum contraction depth               ...    5
 Integral package used                   ... LIBINT
 Integral threshhold            Thresh   ...  2.500e-11
 Primitive cut-off              TCut     ...  2.500e-12


------------------------------ INTEGRAL EVALUATION ----------------------------


 * One electron integrals 
 Pre-screening matrix                    ... done
 Shell pair data                         ... done (   0.000 sec)

-------------------------------------------------------------------------------
                                 ORCA SCF
-------------------------------------------------------------------------------

------------
SCF SETTINGS
------------
Hamiltonian:
 Ab initio Hamiltonian  Method          .... Hartree-Fock(GTOs)


General Settings:
 Integral files         IntName         .... N_0_4_CASSCF-5-4_def2-SVP.sp
 Hartree-Fock type      HFTyp           .... CASSCF
 Total Charge           Charge          ....    0
 Multiplicity           Mult            ....    4
 Number of Electrons    NEL             ....    7
 Basis Dimension        Dim             ....   14
 Nuclear Repulsion      ENuc            ....      0.0000000000 Eh


Diagonalization of the overlap matrix:
Smallest eigenvalue                        ... 1.849e-01
Time for diagonalization                   ...    0.000 sec
Threshold for overlap eigenvalues          ... 1.000e-08
Number of eigenvalues below threshold      ... 0
Time for construction of square roots      ...    0.002 sec
Total time needed                          ...    0.003 sec

-------------------
DFT GRID GENERATION
-------------------

General Integration Accuracy     IntAcc      ...  4.340
Radial Grid Type                 RadialGrid  ... Gauss-Chebyshev
Angular Grid (max. acc.)         AngularGrid ... Lebedev-110
Angular grid pruning method      GridPruning ... 3 (G Style)
Weight generation scheme         WeightScheme... Becke
Basis function cutoff            BFCut       ...    1.0000e-11
Integration weight cutoff        WCut        ...    1.0000e-14
Grids for H and He will be reduced by one unit

# of grid points (after initial pruning)     ...   1702 (   0.0 sec)
# of grid points (after weights+screening)   ...   1702 (   0.0 sec)
Grid point division into batches done        ...    0.0 sec
Reduced shell lists constructed in    0.0 sec

Total number of grid points                  ...     1702
Total number of batches                      ...       27
Average number of points per batch           ...       63
Average number of grid points per atom       ...     1702
Average number of shells per batch           ...     5.57 (92.86%)
Average number of basis functions per batch  ...    13.29 (94.90%)
Average number of large shells per batch     ...     5.25 (94.23%)
Average number of large basis fcns per batch ...    12.68 (95.43%)
Maximum spatial batch extension              ...  13.89, 25.65, 25.65 au
Average spatial batch extension              ...   6.82,  8.00,  8.99 au

Time for grid setup =    0.007 sec

------------------------------
INITIAL GUESS: MODEL POTENTIAL
------------------------------
Loading Hartree-Fock densities                     ... done
Calculating cut-offs                               ... done
Setting up the integral package                    ... done
Initializing the effective Hamiltonian             ... done
Starting the Coulomb interaction                   ... done (   0.0 sec)
Reading the grid                                   ... done
Mapping shells                                     ... done
Starting the XC term evaluation                    ... done (   0.0 sec)
Transforming the Hamiltonian                       ... done (   0.0 sec)
Diagonalizing the Hamiltonian                      ... done (   0.0 sec)
Back transforming the eigenvectors                 ... done (   0.0 sec)
Now organizing SCF variables                       ... done
                      ------------------
                      INITIAL GUESS DONE (   0.1 sec)
                      ------------------


 ... the calculation is a CASSCF calculation -I'm leaving here GOOD LUCK!!!

-------------------------------------------------------------------------------
                              ORCA-CASSCF
-------------------------------------------------------------------------------

Setting up the integral package       ... done
Building the CAS space                ... done (4 configurations for Mult=4)

SYSTEM-SPECIFIC SETTINGS:
Number of active electrons          ...    5
Number of active orbitals           ...    4
Total number of electrons           ...    7
Total number of orbitals            ...   14

Determined orbital ranges:
   Internal       0 -    0 (   1 orbitals)
   Active         1 -    4 (   4 orbitals)
   External       5 -   13 (   9 orbitals)
Number of rotation parameters      ...     49

CI-STEP:
CI strategy                         ... General CI
Number of multiplicity blocks       ...    1
BLOCK  1 WEIGHT=   1.0000
  Multiplicity                      ...    4
  #(Configurations)                 ...    4
  #(CSFs)                           ...    4
  #(Roots)                          ...    1
    ROOT=0 WEIGHT=    1.000000

  PrintLevel                        ...    1
  N(GuessMat)                       ...       512
  MaxDim(CI)                        ...        10
  MaxIter(CI)                       ...        64
  Energy Tolerance CI               ...  2.50e-09
  Residual Tolerance CI             ...  2.50e-09
  Shift(CI)                         ...  1.00e-04

INTEGRAL-TRANSFORMATION-STEP:
  Algorithm                         ... EXACT

ORBITAL-IMPROVEMENT-STEP:
  Algorithm                         ... SuperCI(PT)
  Default Parametrization           ... CAYLEY
  Act-Act rotations                 ... depends on algorithm used

  Note: SuperCI(PT) will ignore FreezeIE, FreezeAct and FreezeGrad. In general Default settings are encouraged.
        In conjunction with ShiftUp, ShiftDn or GradScaling the performance of SuperCI(PT) is less optimal.  

  MaxRot                            ... 2.00e-01 
  Max. no of vectors (DIIS)         ... 15
  DThresh (cut-off) metric          ... 1.00e-06
  Switch step at gradient           ...  3.00e-02 
  Switch step at iteration          ...        50   
  Switch step to                    ... SuperCI(PT)    

SCF-SETTINGS:
  Incremental                       ... on
  RIJCOSX approximation             ... off
  RI-JK approximation               ... off
  AO integral handling              ... DIRECT
  Integral Neglect Thresh           ...  2.50e-11
  Primitive cutoff TCut             ...  2.50e-12
  Energy convergence tolerance      ...  2.50e-08
  Orbital gradient convergence      ...  2.50e-04
  Max. number of iterations         ...        75  


FINAL ORBITALS:
  Active   Orbitals                 ... natural 
  Internal Orbitals                 ... canonical 
  External Orbitals                 ... canonical 

------------------
CAS-SCF ITERATIONS
------------------


MACRO-ITERATION   1: 
   --- Inactive Energy E0 = -44.70744025 Eh
CI-ITERATION   0: 
   -54.328765618   0.000000000000 (    0.00)
   CI-PROBLEM SOLVED
   DENSITIES MADE

                 <<<<<<<<<<<<<<<<<<INITIAL CI STATE CHECK>>>>>>>>>>>>>>>>>>

BLOCK  1 MULT= 4 NROOTS= 1 
ROOT   0:  E=     -54.3287656180 Eh
      1.00000 [     3]: 2111

                 <<<<<<<<<<<<<<<<<<INITIAL CI STATE CHECK>>>>>>>>>>>>>>>>>>

   E(CAS)=   -54.328765618 Eh DE=     0.000000000
   --- Energy gap subspaces: Ext-Act = 0.940   Act-Int = 14.747
   N(occ)=  2.00000 1.00000 1.00000 1.00000
   ||g|| =      0.430731936 Max(G)=     0.407063519 Rot=5,0
   --- Orbital Update [SuperCI(PT)]
   --- Canonicalize Internal Space
   --- Canonicalize External Space
   --- SX_PT (Skipped TA=0 IT=1): ||X|| =      0.042347161 Max(X)(6,3) =     -0.022874815 
   --- SFit(Active Orbitals)

MACRO-ITERATION   2: 
   --- Inactive Energy E0 = -44.71040197 Eh
CI-ITERATION   0: 
   -54.332832544   0.000000000000 (    0.00)
   CI-PROBLEM SOLVED
   DENSITIES MADE
   E(CAS)=   -54.332832544 Eh DE=    -0.004066926
   --- Energy gap subspaces: Ext-Act = 0.927   Act-Int = 14.694
   N(occ)=  2.00000 1.00000 1.00000 1.00000
   ||g|| =      0.029653018 Max(G)=     0.029150554 Rot=5,1
   --- Orbital Update [SuperCI(PT)]
   --- Canonicalize Internal Space
   --- Canonicalize External Space
   --- SX_PT (Skipped TA=0 IT=1): ||X|| =      0.004635068 Max(X)(5,1) =      0.004351887 
   --- SFit(Active Orbitals)

MACRO-ITERATION   3: 
   --- Inactive Energy E0 = -44.71039271 Eh
CI-ITERATION   0: 
   -54.332916331   0.000000000000 (    0.00)
   CI-PROBLEM SOLVED
   DENSITIES MADE
   E(CAS)=   -54.332916331 Eh DE=    -0.000083787
   --- Energy gap subspaces: Ext-Act = 0.928   Act-Int = 14.698
   N(occ)=  2.00000 1.00000 1.00000 1.00000
   ||g|| =      0.007555180 Max(G)=     0.005903564 Rot=5,1
   --- Orbital Update [SuperCI(PT)]
   --- Canonicalize Internal Space
   --- Canonicalize External Space
   --- SX_PT (Skipped TA=0 IT=1): ||X|| =      0.001692472 Max(X)(5,1) =     -0.000881170 
   --- SFit(Active Orbitals)

MACRO-ITERATION   4: 
   --- Inactive Energy E0 = -44.71040128 Eh
CI-ITERATION   0: 
   -54.332925023   0.000000000000 (    0.00)
   CI-PROBLEM SOLVED
   DENSITIES MADE
   E(CAS)=   -54.332925023 Eh DE=    -0.000008692
   --- Energy gap subspaces: Ext-Act = 0.928   Act-Int = 14.697
   N(occ)=  2.00000 1.00000 1.00000 1.00000
   ||g|| =      0.000385851 Max(G)=    -0.000372926 Rot=5,0
   --- Orbital Update [SuperCI(PT)]
   --- Canonicalize Internal Space
   --- Canonicalize External Space
   --- SX_PT (Skipped TA=0 IT=1): ||X|| =      0.000024451 Max(X)(6,3) =     -0.000011753 
   --- SFit(Active Orbitals)

MACRO-ITERATION   5: 
   --- Inactive Energy E0 = -44.71039973 Eh
CI-ITERATION   0: 
   -54.332925025   0.000000000000 (    0.00)
   CI-PROBLEM SOLVED
   DENSITIES MADE
   E(CAS)=   -54.332925025 Eh DE=    -0.000000002
   --- Energy gap subspaces: Ext-Act = 0.928   Act-Int = 14.697
   N(occ)=  2.00000 1.00000 1.00000 1.00000
   ||g|| =      0.000000777 Max(G)=     0.000000510 Rot=5,1
                     ---- THE CAS-SCF ENERGY   HAS CONVERGED ----
                     ---- THE CAS-SCF GRADIENT HAS CONVERGED ----
                            --- FINALIZING ORBITALS ---
                    ---- DOING ONE FINAL ITERATION FOR PRINTING ----
   --- Forming Natural Orbitals
   --- Canonicalize Internal Space
   --- Canonicalize External Space

MACRO-ITERATION   6: 
   --- Inactive Energy E0 = -44.71039973 Eh
   --- All densities will be recomputed
CI-ITERATION   0: 
   -54.332925025   0.000000000000 (    0.00)
   CI-PROBLEM SOLVED
   DENSITIES MADE
   E(CAS)=   -54.332925025 Eh DE=     0.000000000
   --- Energy gap subspaces: Ext-Act = 0.928   Act-Int = 14.697
   N(occ)=  2.00000 1.00000 1.00000 1.00000
   ||g|| =      0.000000777 Max(G)=     0.000000510 Rot=5,1
--------------
CASSCF RESULTS
--------------

Final CASSCF energy       : -54.332925025 Eh   -1478.4741 eV

----------------
ORBITAL ENERGIES
----------------

  NO   OCC          E(Eh)            E(eV) 
   0   2.0000     -15.623279      -425.1310 
   1   2.0000      -0.925854       -25.1938 
   2   1.0000      -0.178819        -4.8659 
   3   1.0000      -0.178819        -4.8659 
   4   1.0000      -0.178819        -4.8659 
   5   0.0000       0.748812        20.3762 
   6   0.0000       0.961691        26.1689 
   7   0.0000       0.961691        26.1689 
   8   0.0000       0.961691        26.1689 
   9   0.0000       2.456478        66.8442 
  10   0.0000       2.456478        66.8442 
  11   0.0000       2.456478        66.8442 
  12   0.0000       2.456478        66.8442 
  13   0.0000       2.456478        66.8442 


---------------------------------------------
CAS-SCF STATES FOR BLOCK  1 MULT= 4 NROOTS= 1
---------------------------------------------

ROOT   0:  E=     -54.3329250249 Eh
      1.00000 [     3]: 2111


--------------
DENSITY MATRIX
--------------

                   0          1          2          3    
      0       2.000000   0.000000  -0.000000   0.000000
      1       0.000000   1.000000  -0.000000   0.000000
      2      -0.000000  -0.000000   1.000000  -0.000000
      3       0.000000   0.000000  -0.000000   1.000000
Trace of the electron density:  5.000000
Extracting Spin-Density from 2-RDM (MULT=4) ... done

-------------------
SPIN-DENSITY MATRIX
-------------------

                   0          1          2          3    
      0       0.000000  -0.000000   0.000000  -0.000000
      1      -0.000000   1.000000   0.000000  -0.000000
      2       0.000000   0.000000   1.000000   0.000000
      3      -0.000000  -0.000000   0.000000   1.000000
Trace of the spin density:  3.000000

-----------------
ENERGY COMPONENTS
-----------------

One electron energy          :    -73.861632835 Eh       -2009.8772 eV
Two electron energy          :     19.528707810 Eh         531.4032 eV
Nuclear repulsion energy     :      0.000000000 Eh           0.0000 eV
                               ----------------
                                  -54.332925025

Kinetic energy               :     54.332926745 Eh        1478.4741 eV
Potential energy             :   -108.665851770 Eh       -2956.9482 eV
Virial ratio                 :     -1.999999968 
                               ----------------
                                  -54.332925025

Core energy                  :    -44.710399730 Eh    -1216.6318 eV


----------------------------
LOEWDIN ORBITAL-COMPOSITIONS
----------------------------

                      0         1         2         3         4         5   
                 -15.62328  -0.92585  -0.17882  -0.17882  -0.17882   0.74881
                   2.00000   2.00000   1.00000   1.00000   1.00000   0.00000
                  --------  --------  --------  --------  --------  --------
 0 N  s             100.0     100.0       0.0       0.0       0.0     100.0
 0 N  pz              0.0       0.0      97.3       1.9       0.8       0.0
 0 N  px              0.0       0.0       0.4       3.8      95.8       0.0
 0 N  py              0.0       0.0       2.3      94.3       3.4       0.0

                      6         7         8         9        10        11   
                   0.96169   0.96169   0.96169   2.45648   2.45648   2.45648
                   0.00000   0.00000   0.00000   0.00000   0.00000   0.00000
                  --------  --------  --------  --------  --------  --------
 0 N  pz              2.4      46.8      50.8       0.0       0.0       0.0
 0 N  px             76.2      18.8       5.0       0.0       0.0       0.0
 0 N  py             21.3      34.5      44.2       0.0       0.0       0.0
 0 N  dz2             0.0       0.0       0.0      68.9       0.4       1.2
 0 N  dxz             0.0       0.0       0.0       0.6      59.6      36.0
 0 N  dyz             0.0       0.0       0.0       2.6      36.0      58.6
 0 N  dx2y2           0.0       0.0       0.0      27.9       4.1       0.1
 0 N  dxy             0.0       0.0       0.0       0.0       0.0       4.1

                     12        13   
                   2.45648   2.45648
                   0.00000   0.00000
                  --------  --------
 0 N  dz2             0.0      29.5
 0 N  dxz             1.5       2.3
 0 N  dyz             2.7       0.1
 0 N  dx2y2           0.1      67.9
 0 N  dxy            95.6       0.2

----------------------------
LOEWDIN REDUCED ACTIVE MOs  
----------------------------

                      0         1         2         3         4         5   
                 -15.62328  -0.92585  -0.17882  -0.17882  -0.17882   0.74881
                   2.00000   2.00000   1.00000   1.00000   1.00000   0.00000
                  --------  --------  --------  --------  --------  --------
 0 N  s             100.0     100.0       0.0       0.0       0.0     100.0
 0 N  pz              0.0       0.0      97.3       1.9       0.8       0.0
 0 N  px              0.0       0.0       0.4       3.8      95.8       0.0
 0 N  py              0.0       0.0       2.3      94.3       3.4       0.0

------------------------------------------------------------------------------
                           ORCA POPULATION ANALYSIS
------------------------------------------------------------------------------
Input electron density              ... N_0_4_CASSCF-5-4_def2-SVP.sp.scfp
Input spin density                  ... N_0_4_CASSCF-5-4_def2-SVP.sp.scfr
BaseName (.gbw .S,...)              ... N_0_4_CASSCF-5-4_def2-SVP.sp

                    ********************************
                    * MULLIKEN POPULATION ANALYSIS *
                    ********************************

------------------------------------------
MULLIKEN ATOMIC CHARGES AND SPIN DENSITIES
------------------------------------------
   0 N :    0.000000    3.000000
Sum of atomic charges       :    0.0000000
Sum of atomic spin densities:    3.0000000

---------------------------------------------------
MULLIKEN REDUCED ORBITAL CHARGES AND SPIN DENSITIES
---------------------------------------------------
CHARGE
  0 N s       :     4.000000  s :     4.000000
      pz      :     1.000000  p :     3.000000
      px      :     1.000000
      py      :     1.000000
      dz2     :     0.000000  d :     0.000000
      dxz     :     0.000000
      dyz     :     0.000000
      dx2y2   :     0.000000
      dxy     :     0.000000

SPIN
  0 N s       :    -0.000000  s :    -0.000000
      pz      :     1.000000  p :     3.000000
      px      :     1.000000
      py      :     1.000000
      dz2     :     0.000000  d :     0.000000
      dxz     :     0.000000
      dyz     :     0.000000
      dx2y2   :     0.000000
      dxy     :     0.000000

------------------------
MULLIKEN OVERLAP CHARGES
------------------------



                     *******************************
                     * LOEWDIN POPULATION ANALYSIS *
                     *******************************

-----------------------------------------
LOEWDIN ATOMIC CHARGES AND SPIN DENSITIES
-----------------------------------------
   0 N :    0.000000    3.000000

--------------------------------------------------
LOEWDIN REDUCED ORBITAL CHARGES AND SPIN DENSITIES
--------------------------------------------------
CHARGE
  0 N s       :     4.000000  s :     4.000000
      pz      :     1.000000  p :     3.000000
      px      :     1.000000
      py      :     1.000000
      dz2     :     0.000000  d :     0.000000
      dxz     :     0.000000
      dyz     :     0.000000
      dx2y2   :     0.000000
      dxy     :     0.000000

SPIN
  0 N s       :    -0.000000  s :    -0.000000
      pz      :     1.000000  p :     3.000000
      px      :     1.000000
      py      :     1.000000
      dz2     :     0.000000  d :     0.000000
      dxz     :     0.000000
      dyz     :     0.000000
      dx2y2   :     0.000000
      dxy     :     0.000000

---------------------------------
LOEWDIN BOND ORDERS (THRESH 0.050000)
---------------------------------



                      *****************************
                      * MAYER POPULATION ANALYSIS *
                      *****************************

  NA   - Mulliken gross atomic population
  ZA   - Total nuclear charge
  QA   - Mulliken gross atomic charge
  VA   - Mayer's total valence
  BVA  - Mayer's bonded valence
  FA   - Mayer's free valence

  ATOM       NA         ZA         QA         VA         BVA        FA
  0 N      7.0000     7.0000     0.0000     3.0000     0.0000     3.0000



Transition Dipole Moments (a.u.) with input orbitals:
MO   0:
 MO   2:      0.074360510 (    -0.004567413,     -0.011263512,      0.073360463)
 MO   3:      0.074360510 (     0.014486832,     -0.072220846,     -0.010186591)
 MO   4:      0.074360510 (     0.072792554,      0.013666317,      0.006630335)
MO   1:
 MO   2:      0.780894024 (    -0.047964515,     -0.118283340,      0.770392064)
 MO   3:      0.780894024 (     0.152132903,     -0.758424419,     -0.106974093)
 MO   4:      0.780894024 (     0.764428192,      0.143516300,      0.069628203)
MO   2:
MO   3:
MO   4:
  newgto N 
  0 7
    1       1712.841585300000         0.005391606858
    2        257.648126770000         0.040208115453
    3         58.458245853000         0.179251418825
    4         16.198367905000         0.463607916490
    5          5.005260080900         0.441566346584
    6          0.587318565700         0.032605807211
    7          0.187645922500        -0.006281071849
  0 7
    1       1712.841585300000         0.001696683497
    2        257.648126770000         0.012653082416
    3         58.458245853000         0.056408586925
    4         16.198367905000         0.145892666445
    5          5.005260080900         0.138956409984
    6          0.587318565700        -0.650321350194
    7          0.187645922500        -0.446154437464
  1 4
    1         13.571470233000         0.039973412279
    2          2.925737287400         0.217531773862
    3          0.799277507500         0.511677587396
    4          0.219543480300         0.460050275179
  end

-------------------------------------------------------------
 Forming the transition density       ... done in 0.002687 sec
-------------------------------------------------------------



==========================================
CASSCF UV, CD spectra and dipole moments
==========================================
-------------------
ABSORPTION SPECTRUM
-------------------

Center of mass           = (  0.0000,  0.0000,  0.0000)
Nuclear contribution to the dipole moment =     0.000000,    0.000000,    0.000000 au

Calculating the dipole integrals                  ... done
Transforming integrals                            ... done
Calculating the Linear Momentum integrals         ... done
Transforming integrals                            ... done
Calculating the Angular Momentum integrals        ... done
Transforming integrals                            ... done

Ground state mult:    4
Ground state block:   0
Ground state root:    0


------------------------------------------------------------------------------
                                 DIPOLE MOMENTS
------------------------------------------------------------------------------
  Root  Block           TX        TY        TZ           |T|
                      (Debye)   (Debye)   (Debye)      (Debye)
------------------------------------------------------------------------------
    0    0            0.00000  -0.00000  -0.00000      0.00000

--------------
CASSCF TIMINGS
--------------

Total time                       ...        0.6 sec
Sum of individual times          ...        0.3 sec ( 49.0%)

Calculation of AO operators
   F(Core) operator              ...        0.0 sec (  2.6%)
   G(Act) operator               ...        0.0 sec (  2.1%)
   J(AO) operators               ...        0.0 sec (  0.0%)
Calculation of MO transformed quantities
   J(MO) operators               ...        0.1 sec ( 21.6%)
   (pq|rs) integrals             ...        0.0 sec (  0.0%)
   AO->MO one electron integrals ...        0.0 sec (  0.0%)
Configuration interaction steps
   CI-setup phase                ...        0.0 sec (  0.1%)
   CI-solution phase             ...        0.1 sec ( 20.3%)
   Generation of densities       ...        0.0 sec (  0.3%)
Orbital improvement steps
   Orbital gradient              ...        0.0 sec (  0.9%)
   O(1) converger                ...        0.0 sec (  0.1%)
Properties                       ...        0.0 sec (  0.9%)
   SOC integral calculation      ...        0.0 sec (  0.0%)
   SSC RMEs (incl. integrals)    ...        0.0 sec (  0.0%)
   SOC RMEs                      ...        0.0 sec (  0.0%)

-------------------------   --------------------
FINAL SINGLE POINT ENERGY       -54.332925024884
-------------------------   --------------------


                            ***************************************
                            *     ORCA property calculations      *
                            ***************************************

                                    ---------------------
                                    Active property flags
                                    ---------------------
   (+) Dipole Moment


------------------------------------------------------------------------------
                       ORCA ELECTRIC PROPERTIES CALCULATION
------------------------------------------------------------------------------

Dipole Moment Calculation                       ... on
Quadrupole Moment Calculation                   ... off
Polarizability Calculation                      ... off
GBWName                                         ... N_0_4_CASSCF-5-4_def2-SVP.sp.gbw
Electron density file                           ... N_0_4_CASSCF-5-4_def2-SVP.sp.scfp
The origin for moment calculation is the CENTER OF MASS  = ( 0.000000,  0.000000  0.000000)

-------------
DIPOLE MOMENT
-------------
                                X             Y             Z
Electronic contribution:      0.00000      -0.00000      -0.00000
Nuclear contribution   :      0.00000       0.00000       0.00000
                        -----------------------------------------
Total Dipole Moment    :      0.00000      -0.00000      -0.00000
                        -----------------------------------------
Magnitude (a.u.)       :      0.00000
Magnitude (Debye)      :      0.00000



--------------------
Rotational spectrum 
--------------------
 
Rotational constants in cm-1:     0.000000     0.000000     0.000000 
Rotational constants in MHz :     0.000000     0.000000     0.000000 

 Dipole components along the rotational axes: 
x,y,z [a.u.] :     0.000000    -0.000000    -0.000000 
x,y,z [Debye]:     0.000000    -0.000000    -0.000000 

 

Timings for individual modules:

Sum of individual times         ...        4.376 sec (=   0.073 min)
GTO integral calculation        ...        0.252 sec (=   0.004 min)   5.8 %
SCF iterations                  ...        0.148 sec (=   0.002 min)   3.4 %
CASSCF iterations               ...        3.975 sec (=   0.066 min)  90.8 %
                             ****ORCA TERMINATED NORMALLY****
TOTAL RUN TIME: 0 days 0 hours 0 minutes 4 seconds 619 msec
