
                                 *****************
                                 * O   R   C   A *
                                 *****************

           --- An Ab Initio, DFT and Semiempirical electronic structure package ---

                  #######################################################
                  #                        -***-                        #
                  #          Department of theory and spectroscopy      #
                  #               Directorship: Frank Neese             #
                  #        Max Planck Institute fuer Kohlenforschung    #
                  #                Kaiser Wilhelm Platz 1               #
                  #                 D-45470 Muelheim/Ruhr               #
                  #                      Germany                        #
                  #                                                     #
                  #                  All rights reserved                #
                  #                        -***-                        #
                  #######################################################


                         Program Version 4.2.0 -  RELEASE  -


 With contributions from (in alphabetic order):
   Daniel Aravena         : Magnetic Suceptibility
   Michael Atanasov       : Ab Initio Ligand Field Theory (pilot matlab implementation)
   Alexander A. Auer      : GIAO ZORA, VPT2
   Ute Becker             : Parallelization
   Giovanni Bistoni       : ED, misc. LED, open-shell LED, HFLED
   Martin Brehm           : Molecular dynamics
   Dmytro Bykov           : SCF Hessian
   Vijay G. Chilkuri      : MRCI spin determinant printing, contributions to CSF-ICE
   Dipayan Datta          : RHF DLPNO-CCSD density
   Achintya Kumar Dutta   : EOM-CC, STEOM-CC
   Dmitry Ganyushin       : Spin-Orbit,Spin-Spin,Magnetic field MRCI
   Miquel Garcia          : C-PCM Hessian, Gaussian charge scheme
   Yang Guo               : DLPNO-NEVPT2, CIM, IAO-localization
   Andreas Hansen         : Spin unrestricted coupled pair/coupled cluster methods
   Benjamin Helmich-Paris : CASSCF linear response (MC-RPA)
   Lee Huntington         : MR-EOM, pCC
   Robert Izsak           : Overlap fitted RIJCOSX, COSX-SCS-MP3, EOM
   Christian Kollmar      : KDIIS, OOCD, Brueckner-CCSD(T), CCSD density
   Simone Kossmann        : Meta GGA functionals, TD-DFT gradient, OOMP2, MP2 Hessian
   Martin Krupicka        : AUTO-CI
   Lucas Lang             : DCDCAS
   Dagmar Lenk            : GEPOL surface, SMD
   Dimitrios Liakos       : Extrapolation schemes; Compound Job, initial MDCI parallelization
   Dimitrios Manganas     : Further ROCIS development; embedding schemes
   Dimitrios Pantazis     : SARC Basis sets
   Taras Petrenko         : DFT Hessian,TD-DFT gradient, ASA, ECA, R-Raman, ABS, FL, XAS/XES, NRVS
   Peter Pinski           : DLPNO-MP2, DLPNO-MP2 Gradient
   Christoph Reimann      : Effective Core Potentials
   Marius Retegan         : Local ZFS, SOC
   Christoph Riplinger    : Optimizer, TS searches, QM/MM, DLPNO-CCSD(T), (RO)-DLPNO pert. Triples
   Tobias Risthaus        : Range-separated hybrids, TD-DFT gradient, RPA, STAB
   Michael Roemelt        : Original ROCIS implementation
   Masaaki Saitow         : Open-shell DLPNO-CCSD energy and density
   Barbara Sandhoefer     : DKH picture change effects
   Avijit Sen             : IP-ROCIS
   Kantharuban Sivalingam : CASSCF convergence, NEVPT2, FIC-MRCI
   Bernardo de Souza      : ESD, SOC TD-DFT
   Georgi Stoychev        : AutoAux, RI-MP2 NMR
   Willem Van den Heuvel  : Paramagnetic NMR
   Boris Wezisla          : Elementary symmetry handling
   Frank Wennmohs         : Technical directorship


 We gratefully acknowledge several colleagues who have allowed us to
 interface, adapt or use parts of their codes:
   Stefan Grimme, W. Hujo, H. Kruse,             : VdW corrections, initial TS optimization,
                  C. Bannwarth                     DFT functionals, gCP, sTDA/sTD-DF
   Ed Valeev, F. Pavosevic, A. Kumar             : LibInt (2-el integral package), F12 methods
   Garnet Chan, S. Sharma, J. Yang, R. Olivares  : DMRG
   Ulf Ekstrom                                   : XCFun DFT Library
   Mihaly Kallay                                 : mrcc  (arbitrary order and MRCC methods)
   Andreas Klamt, Michael Diedenhofen            : otool_cosmo (COSMO solvation model)
   Jiri Pittner, Ondrej Demel                    : Mk-CCSD
   Frank Weinhold                                : gennbo (NPA and NBO analysis)
   Christopher J. Cramer and Donald G. Truhlar   : smd solvation model
   Lars Goerigk                                  : TD-DFT with DH, B97 family of functionals
   V. Asgeirsson, H. Jonsson                     : NEB implementation
   FAccTs GmbH                                   : IRC, NEB, NEB-TS, Multilevel, MM, QM/MM, CI optimization
   S Lehtola, MJT Oliveira, MAL Marques          : LibXC Library


 Your calculation uses the libint2 library for the computation of 2-el integrals
 For citations please refer to: http://libint.valeyev.net

 Your ORCA version has been built with support for libXC version: 4.2.3
 For citations please refer to: https://tddft.org/programs/libxc/

 This ORCA versions uses:
   CBLAS   interface :  Fast vector & matrix operations
   LAPACKE interface :  Fast linear algebra routines
   SCALAPACK package :  Parallel linear algebra routines


----- Orbital basis set information -----
Your calculation utilizes the basis: def2-SVP
   F. Weigend and R. Ahlrichs, Phys. Chem. Chem. Phys. 7, 3297 (2005).

================================================================================
                                        WARNINGS
                       Please study these warnings very carefully!
================================================================================


INFO   : the flag for use of LIBINT has been found!

================================================================================
                                       INPUT FILE
================================================================================
NAME = N_0_4_RHF_def2-SVP.sp.inp
|  1> !uhf def2-svp tightscf
|  2> !normalprint
|  3> 
|  4> %scf
|  5>   maxiter 500
|  6> end
|  7> 
|  8> *xyz 0 4
|  9> N 0 0 0
| 10> *
| 11> 
| 12>                          ****END OF INPUT****
================================================================================

                       ****************************
                       * Single Point Calculation *
                       ****************************

---------------------------------
CARTESIAN COORDINATES (ANGSTROEM)
---------------------------------
  N      0.000000    0.000000    0.000000

----------------------------
CARTESIAN COORDINATES (A.U.)
----------------------------
  NO LB      ZA    FRAG     MASS         X           Y           Z
   0 N     7.0000    0    14.007    0.000000    0.000000    0.000000

--------------------------------
INTERNAL COORDINATES (ANGSTROEM)
--------------------------------
 N      0   0   0     0.000000000000     0.00000000     0.00000000

---------------------------
INTERNAL COORDINATES (A.U.)
---------------------------
 N      0   0   0     0.000000000000     0.00000000     0.00000000

---------------------
BASIS SET INFORMATION
---------------------
There are 1 groups of distinct atoms

 Group   1 Type N   : 7s4p1d contracted to 3s2p1d pattern {511/31/1}

Atom   0N    basis set group =>   1
------------------------------------------------------------------------------
                           ORCA GTO INTEGRAL CALCULATION
------------------------------------------------------------------------------

                         BASIS SET STATISTICS AND STARTUP INFO

 # of primitive gaussian shells          ...   12
 # of primitive gaussian functions       ...   24
 # of contracted shells                  ...    6
 # of contracted basis functions         ...   14
 Highest angular momentum                ...    2
 Maximum contraction depth               ...    5
 Integral package used                   ... LIBINT
 Integral threshhold            Thresh   ...  2.500e-11
 Primitive cut-off              TCut     ...  2.500e-12


------------------------------ INTEGRAL EVALUATION ----------------------------


 * One electron integrals 
 Pre-screening matrix                    ... done
 Shell pair data                         ... done (   0.000 sec)

-------------------------------------------------------------------------------
                                 ORCA SCF
-------------------------------------------------------------------------------

------------
SCF SETTINGS
------------
Hamiltonian:
 Ab initio Hamiltonian  Method          .... Hartree-Fock(GTOs)


General Settings:
 Integral files         IntName         .... N_0_4_RHF_def2-SVP.sp
 Hartree-Fock type      HFTyp           .... UHF
 Total Charge           Charge          ....    0
 Multiplicity           Mult            ....    4
 Number of Electrons    NEL             ....    7
 Basis Dimension        Dim             ....   14
 Nuclear Repulsion      ENuc            ....      0.0000000000 Eh

Convergence Acceleration:
 DIIS                   CNVDIIS         .... on
   Start iteration      DIISMaxIt       ....    12
   Startup error        DIISStart       ....  0.200000
   # of expansion vecs  DIISMaxEq       ....     5
   Bias factor          DIISBfac        ....   1.050
   Max. coefficient     DIISMaxC        ....  10.000
 Newton-Raphson         CNVNR           .... off
 SOSCF                  CNVSOSCF        .... off
 Level Shifting         CNVShift        .... on
   Level shift para.    LevelShift      ....    0.2500
   Turn off err/grad.   ShiftErr        ....    0.0010
 Zerner damping         CNVZerner       .... off
 Static damping         CNVDamp         .... on
   Fraction old density DampFac         ....    0.7000
   Max. Damping (<1)    DampMax         ....    0.9800
   Min. Damping (>=0)   DampMin         ....    0.0000
   Turn off err/grad.   DampErr         ....    0.1000
 Fernandez-Rico         CNVRico         .... off

SCF Procedure:
 Maximum # iterations   MaxIter         ....   500
 SCF integral mode      SCFMode         .... Direct
   Integral package                     .... LIBINT
 Reset frequency        DirectResetFreq ....    20
 Integral Threshold     Thresh          ....  2.500e-11 Eh
 Primitive CutOff       TCut            ....  2.500e-12 Eh

Convergence Tolerance:
 Convergence Check Mode ConvCheckMode   .... Total+1el-Energy
 Convergence forced     ConvForced      .... 0
 Energy Change          TolE            ....  1.000e-08 Eh
 1-El. energy change                    ....  1.000e-05 Eh
 DIIS Error             TolErr          ....  5.000e-07


Diagonalization of the overlap matrix:
Smallest eigenvalue                        ... 1.849e-01
Time for diagonalization                   ...    0.000 sec
Threshold for overlap eigenvalues          ... 1.000e-08
Number of eigenvalues below threshold      ... 0
Time for construction of square roots      ...    0.002 sec
Total time needed                          ...    0.002 sec

-------------------
DFT GRID GENERATION
-------------------

General Integration Accuracy     IntAcc      ...  4.340
Radial Grid Type                 RadialGrid  ... Gauss-Chebyshev
Angular Grid (max. acc.)         AngularGrid ... Lebedev-110
Angular grid pruning method      GridPruning ... 3 (G Style)
Weight generation scheme         WeightScheme... Becke
Basis function cutoff            BFCut       ...    1.0000e-11
Integration weight cutoff        WCut        ...    1.0000e-14
Grids for H and He will be reduced by one unit

# of grid points (after initial pruning)     ...   1702 (   0.0 sec)
# of grid points (after weights+screening)   ...   1702 (   0.0 sec)
Grid point division into batches done        ...    0.0 sec
Reduced shell lists constructed in    0.0 sec

Total number of grid points                  ...     1702
Total number of batches                      ...       27
Average number of points per batch           ...       63
Average number of grid points per atom       ...     1702
Average number of shells per batch           ...     5.57 (92.86%)
Average number of basis functions per batch  ...    13.29 (94.90%)
Average number of large shells per batch     ...     5.25 (94.23%)
Average number of large basis fcns per batch ...    12.68 (95.43%)
Maximum spatial batch extension              ...  13.89, 25.65, 25.65 au
Average spatial batch extension              ...   6.82,  8.00,  8.99 au

Time for grid setup =    0.007 sec

------------------------------
INITIAL GUESS: MODEL POTENTIAL
------------------------------
Loading Hartree-Fock densities                     ... done
Calculating cut-offs                               ... done
Setting up the integral package                    ... done
Initializing the effective Hamiltonian             ... done
Starting the Coulomb interaction                   ... done (   0.0 sec)
Reading the grid                                   ... done
Mapping shells                                     ... done
Starting the XC term evaluation                    ... done (   0.0 sec)
Transforming the Hamiltonian                       ... done (   0.0 sec)
Diagonalizing the Hamiltonian                      ... done (   0.0 sec)
Back transforming the eigenvectors                 ... done (   0.0 sec)
Now organizing SCF variables                       ... done
                      ------------------
                      INITIAL GUESS DONE (   0.1 sec)
                      ------------------
--------------
SCF ITERATIONS
--------------
               ***  Starting incremental Fock matrix formation  ***

                         ----------------------------
                         !        ITERATION     0   !
                         ----------------------------
   Total Energy        :     -54.328765618049 Eh
   Energy Change       :     -54.328765618049 Eh
   MAX-DP              :       0.016634356411
   RMS-DP              :       0.001496416862
   Actual Damping      :       0.7000
   Actual Level Shift  :       0.2500 Eh


                         ----------------------------
                         !        ITERATION     1   !
                         ----------------------------
   Total Energy        :     -54.330590635020 Eh
   Energy Change       :      -0.001825016971 Eh
   MAX-DP              :       0.014568467759
   RMS-DP              :       0.001337930437
   Actual Damping      :       0.7000
   Actual Level Shift  :       0.2500 Eh

                               ***Turning on DIIS***

                         ----------------------------
                         !        ITERATION     2   !
                         ----------------------------
   Total Energy        :     -54.332025321872 Eh
   Energy Change       :      -0.001434686852 Eh
   MAX-DP              :       0.037852295956
   RMS-DP              :       0.003611281941
   Actual Damping      :       0.0000
   Actual Level Shift  :       0.2500 Eh
   DIIS-Error          :       0.036711438361


                         ----------------------------
                         !        ITERATION     3   !
                         ----------------------------
   Total Energy        :     -54.332628984034 Eh
   Energy Change       :      -0.000603662163 Eh
   MAX-DP              :       0.021478172881
   RMS-DP              :       0.001520241155
   Actual Damping      :       0.0000
   Actual Level Shift  :       0.2500 Eh
   DIIS-Error          :       0.006060551262
   DIIS coefficients:
     -0.05311   1.05311


                         ----------------------------
                         !        ITERATION     4   !
                         ----------------------------
   Total Energy        :     -54.336060145672 Eh
   Energy Change       :      -0.003431161638 Eh
   MAX-DP              :       0.014299167293
   RMS-DP              :       0.001079842012
   Actual Damping      :       0.0000
   Actual Level Shift  :       0.2500 Eh
   DIIS-Error          :       0.002529947287
   DIIS coefficients:
     -0.02311  -0.68542   1.70852


                         ----------------------------
                         !        ITERATION     5   !
                         ----------------------------
   Total Energy        :     -54.335909865093 Eh
   Energy Change       :       0.000150280579 Eh
   MAX-DP              :       0.004732077035
   RMS-DP              :       0.000349416241
   Actual Damping      :       0.0000
   Actual Level Shift  :       0.0000 Eh
   DIIS-Error          :       0.000795173529
   DIIS coefficients:
      0.00186  -0.09578  -0.16829   1.26221


                         ----------------------------
                         !        ITERATION     6   !
                         ----------------------------
   Total Energy        :     -54.336643609831 Eh
   Energy Change       :      -0.000733744738 Eh
   MAX-DP              :       0.000395993929
   RMS-DP              :       0.000034272528
   Actual Damping      :       0.0000
   Actual Level Shift  :       0.0000 Eh
   DIIS-Error          :       0.000049281944
   DIIS coefficients:
      0.00037  -0.01002   0.02035   0.03159   0.95770


                         ----------------------------
                         !        ITERATION     7   !
                         ----------------------------
   Total Energy        :     -54.336574646909 Eh
   Energy Change       :       0.000068962922 Eh
   MAX-DP              :       0.000160477175
   RMS-DP              :       0.000013343097
   Actual Damping      :       0.0000
   Actual Level Shift  :       0.0000 Eh
   DIIS-Error          :       0.000015119783
   DIIS coefficients:
      1.24309  -0.00054   0.00221   0.00512  -0.24989


                         ----------------------------
                         !        ITERATION     8   !
                         ----------------------------
   Total Energy        :     -54.336536732207 Eh
   Energy Change       :       0.000037914702 Eh
   MAX-DP              :       0.000014236556
   RMS-DP              :       0.000001176842
   Actual Damping      :       0.0000
   Actual Level Shift  :       0.0000 Eh
   DIIS-Error          :       0.000001296797
   DIIS coefficients:
     -0.03505   1.04610   0.00007   0.00020  -0.01131

                            ***DIIS convergence achieved***

               *****************************************************
               *                     SUCCESS                       *
               *           SCF CONVERGED AFTER   9 CYCLES          *
               *****************************************************


----------------
TOTAL SCF ENERGY
----------------

Total Energy       :          -54.33653305 Eh           -1478.57223 eV

Components:
Nuclear Repulsion  :            0.00000000 Eh               0.00000 eV
Electronic Energy  :          -54.33653305 Eh           -1478.57223 eV
One Electron Energy:          -73.86898320 Eh           -2010.07722 eV
Two Electron Energy:           19.53245015 Eh             531.50499 eV

Virial components:
Potential Energy   :         -108.67063108 Eh           -2957.07821 eV
Kinetic Energy     :           54.33409803 Eh            1478.50597 eV
Virial Ratio       :            2.00004482


---------------
SCF CONVERGENCE
---------------

  Last Energy change         ...    3.6826e-06  Tolerance :   1.0000e-08
  Last MAX-Density change    ...    1.8984e-07  Tolerance :   1.0000e-07
  Last RMS-Density change    ...    1.5292e-08  Tolerance :   5.0000e-09
  Last DIIS Error            ...    1.7316e-08  Tolerance :   5.0000e-07

             **** THE GBW FILE WAS UPDATED (N_0_4_RHF_def2-SVP.sp.gbw) ****
             **** DENSITY FILE WAS UPDATED (N_0_4_RHF_def2-SVP.sp.scfp) ****
             **** ENERGY FILE WAS UPDATED (N_0_4_RHF_def2-SVP.sp.en.tmp) ****
----------------------
UHF SPIN CONTAMINATION
----------------------

Expectation value of <S**2>     :     3.756787
Ideal value S*(S+1) for S=1.5   :     3.750000
Deviation                       :     0.006787

             **** THE GBW FILE WAS UPDATED (N_0_4_RHF_def2-SVP.sp.gbw) ****
             **** DENSITY FILE WAS UPDATED (N_0_4_RHF_def2-SVP.sp.scfp) ****
----------------
ORBITAL ENERGIES
----------------
                 SPIN UP ORBITALS
  NO   OCC          E(Eh)            E(eV) 
   0   1.0000     -15.667964      -426.3470 
   1   1.0000      -1.142038       -31.0764 
   2   1.0000      -0.571460       -15.5502 
   3   1.0000      -0.571460       -15.5502 
   4   1.0000      -0.571460       -15.5502 
   5   0.0000       0.693200        18.8629 
   6   0.0000       0.880055        23.9475 
   7   0.0000       0.880055        23.9475 
   8   0.0000       0.880055        23.9475 
   9   0.0000       2.340727        63.6944 
  10   0.0000       2.340727        63.6944 
  11   0.0000       2.340727        63.6944 
  12   0.0000       2.340727        63.6944 
  13   0.0000       2.340727        63.6944 

                 SPIN DOWN ORBITALS
  NO   OCC          E(Eh)            E(eV) 
   0   1.0000     -15.572645      -423.7532 
   1   1.0000      -0.707056       -19.2400 
   2   0.0000       0.164028         4.4634 
   3   0.0000       0.164028         4.4634 
   4   0.0000       0.164028         4.4634 
   5   0.0000       0.812103        22.0984 
   6   0.0000       1.095340        29.8057 
   7   0.0000       1.095340        29.8057 
   8   0.0000       1.095340        29.8057 
   9   0.0000       2.574232        70.0484 
  10   0.0000       2.574232        70.0484 
  11   0.0000       2.574232        70.0484 
  12   0.0000       2.574232        70.0484 
  13   0.0000       2.574232        70.0484 

                    ********************************
                    * MULLIKEN POPULATION ANALYSIS *
                    ********************************

--------------------------------------------
MULLIKEN ATOMIC CHARGES AND SPIN POPULATIONS
--------------------------------------------
   0 N :    0.000000    3.000000
Sum of atomic charges         :    0.0000000
Sum of atomic spin populations:    3.0000000

-----------------------------------------------------
MULLIKEN REDUCED ORBITAL CHARGES AND SPIN POPULATIONS
-----------------------------------------------------
CHARGE
  0 N s       :     4.000000  s :     4.000000
      pz      :     1.000000  p :     3.000000
      px      :     1.000000
      py      :     1.000000
      dz2     :     0.000000  d :     0.000000
      dxz     :     0.000000
      dyz     :     0.000000
      dx2y2   :     0.000000
      dxy     :     0.000000

SPIN
  0 N s       :    -0.000000  s :    -0.000000
      pz      :     1.000000  p :     3.000000
      px      :     1.000000
      py      :     1.000000
      dz2     :     0.000000  d :     0.000000
      dxz     :     0.000000
      dyz     :     0.000000
      dx2y2   :     0.000000
      dxy     :     0.000000

------------------------
MULLIKEN OVERLAP CHARGES
------------------------



                     *******************************
                     * LOEWDIN POPULATION ANALYSIS *
                     *******************************

-------------------------------------------
LOEWDIN ATOMIC CHARGES AND SPIN POPULATIONS
-------------------------------------------
   0 N :    0.000000    3.000000

----------------------------------------------------
LOEWDIN REDUCED ORBITAL CHARGES AND SPIN POPULATIONS
----------------------------------------------------
CHARGE
  0 N s       :     4.000000  s :     4.000000
      pz      :     1.000000  p :     3.000000
      px      :     1.000000
      py      :     1.000000
      dz2     :     0.000000  d :     0.000000
      dxz     :     0.000000
      dyz     :     0.000000
      dx2y2   :     0.000000
      dxy     :     0.000000

SPIN
  0 N s       :    -0.000000  s :    -0.000000
      pz      :     1.000000  p :     3.000000
      px      :     1.000000
      py      :     1.000000
      dz2     :     0.000000  d :     0.000000
      dxz     :     0.000000
      dyz     :     0.000000
      dx2y2   :     0.000000
      dxy     :     0.000000

---------------------------------
LOEWDIN BOND ORDERS (THRESH 0.050000)
---------------------------------


------------------------------------------
LOEWDIN REDUCED ORBITAL POPULATIONS PER MO
-------------------------------------------
THRESHOLD FOR PRINTING IS 0.1%
SPIN UP
                      0         1         2         3         4         5   
                 -15.66796  -1.14204  -0.57146  -0.57146  -0.57146   0.69320
                   1.00000   1.00000   1.00000   1.00000   1.00000   0.00000
                  --------  --------  --------  --------  --------  --------
 0 N  s             100.0     100.0       0.0       0.0       0.0     100.0
 0 N  pz              0.0       0.0      41.1       2.1      56.9       0.0
 0 N  px              0.0       0.0      40.5      20.2      39.3       0.0
 0 N  py              0.0       0.0      18.5      77.7       3.8       0.0

                      6         7         8         9        10        11   
                   0.88005   0.88005   0.88005   2.34073   2.34073   2.34073
                   0.00000   0.00000   0.00000   0.00000   0.00000   0.00000
                  --------  --------  --------  --------  --------  --------
 0 N  pz             15.9      44.5      39.6       0.0       0.0       0.0
 0 N  px             79.9      19.0       1.1       0.0       0.0       0.0
 0 N  py              4.2      36.5      59.3       0.0       0.0       0.0
 0 N  dz2             0.0       0.0       0.0       0.0       0.1      66.7
 0 N  dxz             0.0       0.0       0.0      15.6      74.8       0.2
 0 N  dyz             0.0       0.0       0.0      55.1       3.3       2.6
 0 N  dx2y2           0.0       0.0       0.0       5.3      16.5      11.3
 0 N  dxy             0.0       0.0       0.0      24.1       5.3      19.2

                     12        13   
                   2.34073   2.34073
                   0.00000   0.00000
                  --------  --------
 0 N  dz2             0.4      32.8
 0 N  dxz             7.5       2.0
 0 N  dyz            36.6       2.4
 0 N  dx2y2          39.5      27.4
 0 N  dxy            16.0      35.4

SPIN DOWN
                      0         1         2         3         4         5   
                 -15.57265  -0.70706   0.16403   0.16403   0.16403   0.81210
                   1.00000   1.00000   0.00000   0.00000   0.00000   0.00000
                  --------  --------  --------  --------  --------  --------
 0 N  s             100.0     100.0       0.0       0.0       0.0     100.0
 0 N  pz              0.0       0.0      43.6       0.5      55.9       0.0
 0 N  px              0.0       0.0      46.2      23.0      30.7       0.0
 0 N  py              0.0       0.0      10.2      76.5      13.4       0.0

                      6         7         8         9        10        11   
                   1.09534   1.09534   1.09534   2.57423   2.57423   2.57423
                   0.00000   0.00000   0.00000   0.00000   0.00000   0.00000
                  --------  --------  --------  --------  --------  --------
 0 N  pz              0.1      31.9      68.0       0.0       0.0       0.0
 0 N  px             96.2       1.9       1.8       0.0       0.0       0.0
 0 N  py              3.7      66.2      30.2       0.0       0.0       0.0
 0 N  dz2             0.0       0.0       0.0       8.4      41.0       3.7
 0 N  dxz             0.0       0.0       0.0      42.9      29.5      17.5
 0 N  dyz             0.0       0.0       0.0       1.6       3.2      36.6
 0 N  dx2y2           0.0       0.0       0.0       0.0      21.7       7.0
 0 N  dxy             0.0       0.0       0.0      47.1       4.5      35.2

                     12        13   
                   2.57423   2.57423
                   0.00000   0.00000
                  --------  --------
 0 N  dz2            24.3      22.7
 0 N  dxz             8.3       1.8
 0 N  dyz            54.5       4.1
 0 N  dx2y2           1.0      70.3
 0 N  dxy            12.0       1.1


                      *****************************
                      * MAYER POPULATION ANALYSIS *
                      *****************************

  NA   - Mulliken gross atomic population
  ZA   - Total nuclear charge
  QA   - Mulliken gross atomic charge
  VA   - Mayer's total valence
  BVA  - Mayer's bonded valence
  FA   - Mayer's free valence

  ATOM       NA         ZA         QA         VA         BVA        FA
  0 N      7.0000     7.0000     0.0000     3.0136     0.0000     3.0136

  Mayer bond orders larger than 0.100000


-------
TIMINGS
-------

Total SCF time: 0 days 0 hours 0 min 1 sec 

Total time                  ....       1.345 sec
Sum of individual times     ....       1.115 sec  ( 82.9%)

Fock matrix formation       ....       0.984 sec  ( 73.2%)
Diagonalization             ....       0.005 sec  (  0.4%)
Density matrix formation    ....       0.000 sec  (  0.0%)
Population analysis         ....       0.015 sec  (  1.1%)
Initial guess               ....       0.097 sec  (  7.2%)
Orbital Transformation      ....       0.000 sec  (  0.0%)
Orbital Orthonormalization  ....       0.000 sec  (  0.0%)
DIIS solution               ....       0.006 sec  (  0.5%)

-------------------------   --------------------
FINAL SINGLE POINT ENERGY       -54.336533049589
-------------------------   --------------------


                            ***************************************
                            *     ORCA property calculations      *
                            ***************************************

                                    ---------------------
                                    Active property flags
                                    ---------------------
   (+) Dipole Moment


------------------------------------------------------------------------------
                       ORCA ELECTRIC PROPERTIES CALCULATION
------------------------------------------------------------------------------

Dipole Moment Calculation                       ... on
Quadrupole Moment Calculation                   ... off
Polarizability Calculation                      ... off
GBWName                                         ... N_0_4_RHF_def2-SVP.sp.gbw
Electron density file                           ... N_0_4_RHF_def2-SVP.sp.scfp
The origin for moment calculation is the CENTER OF MASS  = ( 0.000000,  0.000000  0.000000)

-------------
DIPOLE MOMENT
-------------
                                X             Y             Z
Electronic contribution:     -0.00000      -0.00000      -0.00000
Nuclear contribution   :      0.00000       0.00000       0.00000
                        -----------------------------------------
Total Dipole Moment    :     -0.00000      -0.00000      -0.00000
                        -----------------------------------------
Magnitude (a.u.)       :      0.00000
Magnitude (Debye)      :      0.00000



--------------------
Rotational spectrum 
--------------------
 
Rotational constants in cm-1:     0.000000     0.000000     0.000000 
Rotational constants in MHz :     0.000000     0.000000     0.000000 

 Dipole components along the rotational axes: 
x,y,z [a.u.] :    -0.000000    -0.000000    -0.000000 
x,y,z [Debye]:    -0.000000    -0.000000    -0.000000 

 

Timings for individual modules:

Sum of individual times         ...        1.648 sec (=   0.027 min)
GTO integral calculation        ...        0.262 sec (=   0.004 min)  15.9 %
SCF iterations                  ...        1.386 sec (=   0.023 min)  84.1 %
                             ****ORCA TERMINATED NORMALLY****
TOTAL RUN TIME: 0 days 0 hours 0 minutes 1 seconds 884 msec
