
                                 *****************
                                 * O   R   C   A *
                                 *****************

                                            #,                                       
                                            ###                                      
                                            ####                                     
                                            #####                                    
                                            ######                                   
                                           ########,                                 
                                     ,,################,,,,,                         
                               ,,#################################,,                 
                          ,,##########################################,,             
                       ,#########################################, ''#####,          
                    ,#############################################,,   '####,        
                  ,##################################################,,,,####,       
                ,###########''''           ''''###############################       
              ,#####''   ,,,,##########,,,,          '''####'''          '####       
            ,##' ,,,,###########################,,,                        '##       
           ' ,,###''''                  '''############,,,                           
         ,,##''                                '''############,,,,        ,,,,,,###''
      ,#''                                            '''#######################'''  
     '                                                          ''''####''''         
             ,#######,   #######,   ,#######,      ##                                
            ,#'     '#,  ##    ##  ,#'     '#,    #''#        ######   ,####,        
            ##       ##  ##   ,#'  ##            #'  '#       #        #'  '#        
            ##       ##  #######   ##           ,######,      #####,   #    #        
            '#,     ,#'  ##    ##  '#,     ,#' ,#      #,         ##   #,  ,#        
             '#######'   ##     ##  '#######'  #'      '#     #####' # '####'        



                  #######################################################
                  #                        -***-                        #
                  #          Department of theory and spectroscopy      #
                  #    Directorship and core code : Frank Neese         #
                  #        Max Planck Institute fuer Kohlenforschung    #
                  #                Kaiser Wilhelm Platz 1               #
                  #                 D-45470 Muelheim/Ruhr               #
                  #                      Germany                        #
                  #                                                     #
                  #                  All rights reserved                #
                  #                        -***-                        #
                  #######################################################


                         Program Version 5.0.2 -  RELEASE  -


 With contributions from (in alphabetic order):
   Daniel Aravena         : Magnetic Suceptibility
   Michael Atanasov       : Ab Initio Ligand Field Theory (pilot matlab implementation)
   Alexander A. Auer      : GIAO ZORA, VPT2 properties, NMR spectrum
   Ute Becker             : Parallelization
   Giovanni Bistoni       : ED, misc. LED, open-shell LED, HFLD
   Martin Brehm           : Molecular dynamics
   Dmytro Bykov           : SCF Hessian
   Vijay G. Chilkuri      : MRCI spin determinant printing, contributions to CSF-ICE
   Dipayan Datta          : RHF DLPNO-CCSD density
   Achintya Kumar Dutta   : EOM-CC, STEOM-CC
   Dmitry Ganyushin       : Spin-Orbit,Spin-Spin,Magnetic field MRCI
   Miquel Garcia          : C-PCM and meta-GGA Hessian, CC/C-PCM, Gaussian charge scheme
   Yang Guo               : DLPNO-NEVPT2, F12-NEVPT2, CIM, IAO-localization
   Andreas Hansen         : Spin unrestricted coupled pair/coupled cluster methods
   Benjamin Helmich-Paris : MC-RPA, TRAH-SCF, COSX integrals
   Lee Huntington         : MR-EOM, pCC
   Robert Izsak           : Overlap fitted RIJCOSX, COSX-SCS-MP3, EOM
   Marcus Kettner         : VPT2
   Christian Kollmar      : KDIIS, OOCD, Brueckner-CCSD(T), CCSD density, CASPT2, CASPT2-K
   Simone Kossmann        : Meta GGA functionals, TD-DFT gradient, OOMP2, MP2 Hessian
   Martin Krupicka        : Initial AUTO-CI
   Lucas Lang             : DCDCAS
   Marvin Lechner         : AUTO-CI (C++ implementation), FIC-MRCC
   Dagmar Lenk            : GEPOL surface, SMD
   Dimitrios Liakos       : Extrapolation schemes; Compound Job, initial MDCI parallelization
   Dimitrios Manganas     : Further ROCIS development; embedding schemes
   Dimitrios Pantazis     : SARC Basis sets
   Anastasios Papadopoulos: AUTO-CI, single reference methods and gradients
   Taras Petrenko         : DFT Hessian,TD-DFT gradient, ASA, ECA, R-Raman, ABS, FL, XAS/XES, NRVS
   Peter Pinski           : DLPNO-MP2, DLPNO-MP2 Gradient
   Christoph Reimann      : Effective Core Potentials
   Marius Retegan         : Local ZFS, SOC
   Christoph Riplinger    : Optimizer, TS searches, QM/MM, DLPNO-CCSD(T), (RO)-DLPNO pert. Triples
   Tobias Risthaus        : Range-separated hybrids, TD-DFT gradient, RPA, STAB
   Michael Roemelt        : Original ROCIS implementation
   Masaaki Saitow         : Open-shell DLPNO-CCSD energy and density
   Barbara Sandhoefer     : DKH picture change effects
   Avijit Sen             : IP-ROCIS
   Kantharuban Sivalingam : CASSCF convergence, NEVPT2, FIC-MRCI
   Bernardo de Souza      : ESD, SOC TD-DFT
   Georgi Stoychev        : AutoAux, RI-MP2 NMR, DLPNO-MP2 response
   Willem Van den Heuvel  : Paramagnetic NMR
   Boris Wezisla          : Elementary symmetry handling
   Frank Wennmohs         : Technical directorship


 We gratefully acknowledge several colleagues who have allowed us to
 interface, adapt or use parts of their codes:
   Stefan Grimme, W. Hujo, H. Kruse, P. Pracht,  : VdW corrections, initial TS optimization,
                  C. Bannwarth, S. Ehlert          DFT functionals, gCP, sTDA/sTD-DF
   Ed Valeev, F. Pavosevic, A. Kumar             : LibInt (2-el integral package), F12 methods
   Garnet Chan, S. Sharma, J. Yang, R. Olivares  : DMRG
   Ulf Ekstrom                                   : XCFun DFT Library
   Mihaly Kallay                                 : mrcc  (arbitrary order and MRCC methods)
   Jiri Pittner, Ondrej Demel                    : Mk-CCSD
   Frank Weinhold                                : gennbo (NPA and NBO analysis)
   Christopher J. Cramer and Donald G. Truhlar   : smd solvation model
   Lars Goerigk                                  : TD-DFT with DH, B97 family of functionals
   V. Asgeirsson, H. Jonsson                     : NEB implementation
   FAccTs GmbH                                   : IRC, NEB, NEB-TS, DLPNO-Multilevel, CI-OPT
                                                   MM, QMMM, 2- and 3-layer-ONIOM, Crystal-QMMM,
                                                   LR-CPCM, SF, NACMEs, symmetry and pop. for TD-DFT,
                                                   nearIR, NL-DFT gradient (VV10), updates on ESD,
                                                   ML-optimized integration grids
   S Lehtola, MJT Oliveira, MAL Marques          : LibXC Library
   Liviu Ungur et al                             : ANISO software


 Your calculation uses the libint2 library for the computation of 2-el integrals
 For citations please refer to: http://libint.valeyev.net

 Your ORCA version has been built with support for libXC version: 5.1.0
 For citations please refer to: https://tddft.org/programs/libxc/

 This ORCA versions uses:
   CBLAS   interface :  Fast vector & matrix operations
   LAPACKE interface :  Fast linear algebra routines
   SCALAPACK package :  Parallel linear algebra routines
   Shared memory     :  Shared parallel matrices
   BLAS/LAPACK       :  OpenBLAS 0.3.15  USE64BITINT DYNAMIC_ARCH NO_AFFINITY SkylakeX SINGLE_THREADED
        Core in use  :  SkylakeX
   Copyright (c) 2011-2014, The OpenBLAS Project


================================================================================

----- Orbital basis set information -----
Your calculation utilizes the basis: def2-SVP
   F. Weigend and R. Ahlrichs, Phys. Chem. Chem. Phys. 7, 3297 (2005).

The basis set includes element-specific modifications.

----- AuxJ basis set information -----
Your calculation utilizes the auxiliary basis: def2/J
   F. Weigend, Phys. Chem. Chem. Phys. 8, 1057 (2006).

The basis set includes element-specific modifications.

================================================================================
                                        WARNINGS
                       Please study these warnings very carefully!
================================================================================


INFO   : the flag for use of the SHARK integral package has been found!


WARNING: TRAH-SCF with ROHF wave function is not implemented yet
  ===> : Turning TRAH off

================================================================================
                                       INPUT FILE
================================================================================
NAME = Mo-HIPT-NH3_0_2_bp86_xtb_lanl2dz_6-31gpol.opt_atom42.inp
|  1> # input to generate an atomic fitting density for Mo
|  2> # this file is use internally by ORCA
|  3> #
|  4> # atomic ground state (S=5): 1s2 2s2 2p6 3s2 3p6 4s2 3d10 4p6 5s2 4d4 
|  5> #
|  6> ! RHF AllowRHF def2-SVP def2/J  NoMulliken NoLoewdin NoMayer NoPrintMOs 
|  7> 
|  8> %output print[p_atomdensfit] 2 end
|  9> 
| 10> %scf
| 11>   guess hcore
| 12>   maxiter 1000
| 13>   maxdisk 500000
| 14>   SCFMode Conventional
| 15>   lshift 0.600000
| 16>   hftyp rohf
| 17>   rohf_case sahf
| 18>   rohf_numop   2
| 19>   rohf_norb[1] 5
| 20>   rohf_nel[1]  4
| 21> end
| 22> 
| 23> %basis
| 24>   NewECP 42
| 25>     N_core 28
| 26>     lmax f
| 27>     s 3
| 28>       1     110.2991760000      2.8063717000  0
| 29>       2      23.2014645000     44.5162012000  1
| 30>       3       5.3530131000     82.7785227000  2
| 31>     p 4
| 32>       1      63.2901397000      4.9420876000  0
| 33>       2      23.3315302000     25.8604976000  1
| 34>       3      24.6759423000    132.4708742000  2
| 35>       4       4.6493040000     57.3149794000  2
| 36>     d 5
| 37>       1     104.4839977000      3.0054591000  0
| 38>       2      66.2307245000     26.3637851000  1
| 39>       3      39.1283176000    183.3849199000  2
| 40>       4      13.1164437000     98.4453068000  2
| 41>       5       3.6280263000     22.4901377000  2
| 42>     f 5
| 43>       1     537.9667807000     -0.0469492000  0
| 44>       2     147.8982938000    -20.2080084000  1
| 45>       3      45.7358898000   -106.2116302000  2
| 46>       4      13.2911467000    -41.8107368000  2
| 47>       5       4.7059961000     -4.2054103000  2
| 48>   end
| 49>   NewGTO 42
| 50>     s 3 
| 51>      1       2.3610000000     -0.9121759787
| 52>      2       1.3090000000      1.1477452732
| 53>      3       0.4500000000      0.6097108857
| 54>     s 4 
| 55>      1       2.3610000000      0.8139258415
| 56>      2       1.3090000000     -1.1360083184
| 57>      3       0.4500000000     -1.1611591166
| 58>      4       0.1681000000      1.0064785277
| 59>     s 1 
| 60>      1       0.0423000000      1.0000000000
| 61>     p 3 
| 62>      1       4.8950000000     -0.0908257996
| 63>      2       1.0440000000      0.7042898967
| 64>      3       0.3877000000      0.3973178981
| 65>     p 2 
| 66>      1       0.4995000000     -0.1081944993
| 67>      2       0.0780000000      1.0368092928
| 68>     p 1 
| 69>      1       0.0247000000      1.0000000000
| 70>     d 3 
| 71>      1       2.9930000000      0.0527063001
| 72>      2       1.0630000000      0.5003907009
| 73>      3       0.3721000000      0.5794024010
| 74>     d 1 
| 75>      1       0.1178000000      1.0000000000
| 76>   end
| 77>   NewAuxGTO 42
| 78>     S 1
| 79>      1 1310.72 1.0
| 80>     S 1
| 81>      1  655.36 1.0
| 82>     S 1
| 83>      1  327.68 1.0
| 84>     S 1
| 85>      1  163.84 1.0
| 86>     S 1
| 87>      1   81.82 1.0
| 88>     S 1
| 89>      1   40.96 1.0
| 90>     S 1
| 91>      1   20.48 1.0
| 92>     S 1
| 93>      1   10.24 1.0
| 94>     S 1
| 95>      1    5.12 1.0
| 96>     S 1
| 97>      1    2.56 1.0
| 98>     S 1
| 99>      1    1.28 1.0
|100>     S 1
|101>      1    0.64 1.0
|102>     S 1
|103>      1    0.32 1.0
|104>     S 1
|105>      1    0.16 1.0
|106>     S 1
|107>      1    0.08 1.0
|108>     S 1
|109>      1    0.04 1.0
|110>     S 1
|111>      1    0.02 1.0
|112>     S 1
|113>      1    0.01 1.0
|114>   end
|115> end
|116> 
|117> * xyz 0 5
|118> 42  0.0 0.0 0.0
|119> *
|120> 
|121> 
|122>                          ****END OF INPUT****
================================================================================

                       ****************************
                       * Single Point Calculation *
                       ****************************

---------------------------------
CARTESIAN COORDINATES (ANGSTROEM)
---------------------------------
  Mo     0.000000    0.000000    0.000000

----------------------------
CARTESIAN COORDINATES (A.U.)
----------------------------
  NO LB      ZA    FRAG     MASS         X           Y           Z
   0 Mo   14.0000*   0    95.940    0.000000    0.000000    0.000000
* core charge reduced due to ECP

--------------------------------
INTERNAL COORDINATES (ANGSTROEM)
--------------------------------
 Mo     0   0   0     0.000000000000     0.00000000     0.00000000

---------------------------
INTERNAL COORDINATES (A.U.)
---------------------------
 Mo     0   0   0     0.000000000000     0.00000000     0.00000000

---------------------
BASIS SET INFORMATION
---------------------
There are 1 groups of distinct atoms

 Group   1 Type Mo  : 8s6p4d contracted to 3s3p2d pattern {341/321/31}

Atom   0Mo   basis set group =>   1
---------------------------------
AUXILIARY/J BASIS SET INFORMATION
---------------------------------
There are 1 groups of distinct atoms

 Group   1 Type Mo  : 18s contracted to 18s pattern {111111111111111111}

Atom   0Mo   basis set group =>   1
-------------------------
ECP PARAMETER INFORMATION
-------------------------

 Group 1, Type Mo ECP (replacing 28 core electrons, lmax=3)

Atom   0Mo   ECP group =>   1

------------------------------------------------------------------------------
                           ORCA GTO INTEGRAL CALCULATION
------------------------------------------------------------------------------
------------------------------------------------------------------------------
                   ___                                                        
                  /   \      - P O W E R E D   B Y -                         
                 /     \                                                     
                 |  |  |   _    _      __       _____    __    __             
                 |  |  |  | |  | |    /  \     |  _  \  |  |  /  |          
                  \  \/   | |  | |   /    \    | | | |  |  | /  /          
                 / \  \   | |__| |  /  /\  \   | |_| |  |  |/  /          
                |  |  |   |  __  | /  /__\  \  |    /   |      \           
                |  |  |   | |  | | |   __   |  |    \   |  |\   \          
                \     /   | |  | | |  |  |  |  | |\  \  |  | \   \       
                 \___/    |_|  |_| |__|  |__|  |_| \__\ |__|  \__/        
                                                                              
                      - O R C A' S   B I G   F R I E N D -                    
                                      &                                       
                       - I N T E G R A L  F E E D E R -                       
                                                                              
 v1 FN, 2020, v2 2021                                                         
------------------------------------------------------------------------------


Reading SHARK input file Mo-HIPT-NH3_0_2_bp86_xtb_lanl2dz_6-31gpol.opt_atom42.SHARKINP.tmp ... ok
----------------------
SHARK INTEGRAL PACKAGE
----------------------

Number of atoms                             ...      1
Number of basis functions                   ...     22
Number of shells                            ...      8
Maximum angular momentum                    ...      2
Integral batch strategy                     ... SHARK/LIBINT Hybrid
RI-J (if used) integral strategy            ... SPLIT-RIJ (Revised 2003 algorithm where possible)
Printlevel                                  ...      1
Contraction scheme used                     ... SEGMENTED contraction
Coulomb Range Separation                    ... NOT USED
Exchange Range Separation                   ... NOT USED
Finite Nucleus Model                        ... NOT USED
Auxiliary Coulomb fitting basis             ... AVAILABLE
   # of basis functions in Aux-J            ...     18
   # of shells in Aux-J                     ...     18
   Maximum angular momentum in Aux-J        ...      0
Auxiliary J/K fitting basis                 ... NOT available
Auxiliary Correlation fitting basis         ... NOT available
Auxiliary 'external' fitting basis          ... NOT available
Integral threshold                          ...     1.000000e-10
Primitive cut-off                           ...     1.000000e-11
Primitive pair pre-selection threshold      ...     1.000000e-11

Calculating pre-screening integrals         ... done (  0.0 sec) Dimension = 8
Organizing shell pair data                  ... done (  0.0 sec)
Shell pair information
Total number of shell pairs                 ...        36
Shell pairs after pre-screening             ...        36
Total number of primitive shell pairs       ...       187
Primitive shell pairs kept                  ...       187
          la=0 lb=0:      6 shell pairs
          la=1 lb=0:      9 shell pairs
          la=1 lb=1:      6 shell pairs
          la=2 lb=0:      6 shell pairs
          la=2 lb=1:      6 shell pairs
          la=2 lb=2:      3 shell pairs

Calculating one electron integrals          ... done (  0.0 sec)
Calculating ECP integrals                   ... done (  0.0 sec)
Calculating RI/J V-Matrix + Cholesky decomp.... done (  0.0 sec)
Calculating Nuclear repulsion               ... done (  0.0 sec) ENN=      0.000000000000 Eh
Calculating 4-index integrals               ... 
    -> SHARK/Ints2Disk: Thresh =     1.000000e-10 TCut=    1.000000e-11 
    -> calling libint FockFlag=2 Lmax_loc=2
    -> L=0 1 2 2:     0.007 sec done=        27 (=100.0%) skipped=         0 
    -> L=0 2 2 2:     0.001 sec done=        18 (=100.0%) skipped=         0 
    -> L=1 1 1 2:     0.006 sec done=        36 (=100.0%) skipped=         0 
    -> L=1 1 2 2:     0.005 sec done=        18 (=100.0%) skipped=         0 
    -> L=1 2 1 2:     0.001 sec done=        21 (=100.0%) skipped=         0 
    -> L=1 2 2 2:     0.010 sec done=        18 (=100.0%) skipped=         0 
    -> L=2 2 2 2:     0.001 sec done=         6 (=100.0%) skipped=         0 
    ->Total LIBINT loop time =    0.033 sec
    -> L=0 0 0 0:     0.000 sec done=        21 (=100.0%) skipped=         0 
    -> L=1 0 0 0:     0.000 sec done=        54 (=100.0%) skipped=         0 
    -> L=1 0 1 0:     0.000 sec done=        45 (=100.0%) skipped=         0 
    -> L=1 1 0 0:     0.000 sec done=        36 (=100.0%) skipped=         0 
    -> L=1 1 1 0:     0.000 sec done=        54 (=100.0%) skipped=         0 
    -> L=1 1 1 1:     0.000 sec done=        21 (=100.0%) skipped=         0 
    -> L=2 0 0 0:     0.000 sec done=        36 (=100.0%) skipped=         0 
    -> L=2 0 1 0:     0.000 sec done=        54 (=100.0%) skipped=         0 
    -> L=2 0 1 1:     0.000 sec done=        36 (=100.0%) skipped=         0 
    -> L=2 0 2 0:     0.000 sec done=        21 (=100.0%) skipped=         0 
    -> L=2 1 0 0:     0.000 sec done=        36 (=100.0%) skipped=         0 
    -> L=2 1 1 0:     0.000 sec done=        54 (=100.0%) skipped=         0 
    -> L=2 1 2 0:     0.001 sec done=        36 (=100.0%) skipped=         0 
    -> L=2 2 0 0:     0.000 sec done=        18 (=100.0%) skipped=         0 
    ->Total SHARK integral loop time =    0.004 sec
    -> Total Integral generation matrix time =    0.049 sec
    -> Number of small integrals   =         0
    -> Number of medium integrals  =         0
    -> Number of large integrals   =      4040
    -> Number of MB stored         =         0 MB


SHARK setup successfully completed in   0.4 seconds

Maximum memory used throughout the entire GTOINT-calculation: 31.3 MB
-------------------------------------------------------------------------------
                                 ORCA SCF
-------------------------------------------------------------------------------

------------
SCF SETTINGS
------------
Hamiltonian:
 Ab initio Hamiltonian  Method          .... Hartree-Fock(GTOs)


General Settings:
 Integral files         IntName         .... Mo-HIPT-NH3_0_2_bp86_xtb_lanl2dz_6-31gpol.opt_atom42
 Hartree-Fock type      HFTyp           .... ROHF
 Total Charge           Charge          ....    0
 Multiplicity           Mult            ....    5
 Number of Electrons    NEL             ....   14
 Basis Dimension        Dim             ....   22
 Nuclear Repulsion      ENuc            ....      0.0000000000 Eh

Convergence Acceleration:
 DIIS                   CNVDIIS         .... on
   Start iteration      DIISMaxIt       ....    12
   Startup error        DIISStart       ....  0.200000
   # of expansion vecs  DIISMaxEq       ....     5
   Bias factor          DIISBfac        ....   1.050
   Max. coefficient     DIISMaxC        ....  10.000
 Trust-Rad. Augm. Hess. CNVTRAH         .... off
 SOSCF                  CNVSOSCF        .... off
 Level Shifting         CNVShift        .... on
   Level shift para.    LevelShift      ....    0.6000
   Turn off err/grad.   ShiftErr        ....    0.0010
 Zerner damping         CNVZerner       .... off
 Static damping         CNVDamp         .... on
   Fraction old density DampFac         ....    0.7000
   Max. Damping (<1)    DampMax         ....    0.9800
   Min. Damping (>=0)   DampMin         ....    0.0000
   Turn off err/grad.   DampErr         ....    0.1000
 Fernandez-Rico         CNVRico         .... off

SCF Procedure:
 Maximum # iterations   MaxIter         ....  1000
 SCF integral mode      SCFMode         .... Conventional
 Integral Threshold     Thresh          ....  1.000e-10 Eh
 Primitive CutOff       TCut            ....  1.000e-11 Eh
 Integral Buffer length BufferLength    .... 1048576
 Integral index format  IndFormat       ....     0
 Integral value format  ValFormat       ....     0
 Integral Storage       Thresh          ....  1.000e-10 Eh

Convergence Tolerance:
 Convergence Check Mode ConvCheckMode   .... Total+1el-Energy
 Convergence forced     ConvForced      .... 0
 Energy Change          TolE            ....  1.000e-06 Eh
 1-El. energy change                    ....  1.000e-03 Eh
 DIIS Error             TolErr          ....  1.000e-06


Diagonalization of the overlap matrix:
Smallest eigenvalue                        ... 6.988e-02
Time for diagonalization                   ...    0.106 sec
Threshold for overlap eigenvalues          ... 1.000e-08
Number of eigenvalues below threshold      ... 0
Time for construction of square roots      ...    0.009 sec
Total time needed                          ...    0.115 sec

--------------------
INITIAL GUESS: HCORE
--------------------
AVERAGE-CONFIGURATION (SAHF) CASE FOUND

-------------------
FINAL ROHF SETTINGS
-------------------
Number of operators             ... 2
  operator   0:   5 orbitals  10 electrons n(mue)= 2.000
  operator   1:   5 orbitals   4 electrons n(mue)= 0.800
Vector coupling coefficients a and b (Zerner convention):
   1.000    1.000           1.000    1.000 
   1.000    0.938           1.000    1.875 

                      -----------------
                      INTIAL GUESS DONE 
                      -----------------

 InCore treatment chosen:
   Memory dedicated               ...    1024 MB
   Memory needed                  ...      0 MB
   Number of tiny    integrals    ...       0
   Number of small   integrals    ...       0
   Number of regular integrals    ...    4040

--------------
SCF ITERATIONS
--------------
ITER       Energy         Delta-E        Max-DP      RMS-DP      [F,P]     Damp
  0    -65.4224871278   0.000000000000 0.35190888  0.02020180  0.4152615 0.7000
  1    -65.9535947448  -0.531107617036 0.37486349  0.02110717  0.2510495 0.7000
                            ****Activating DIIS****
  2    -66.2346634320  -0.281068687188 0.37434000  0.02069083  0.1751150 0.7000
  3    -66.4553959900  -0.220732558065 0.96958595  0.05354051  0.0609627 0.0000
  4    -66.7541228449  -0.298726854865 0.03809781  0.00321842  0.0282579 0.0000
  5    -66.7540547110   0.000068133952 0.04515700  0.00310055  0.0278367 0.0000
  6    -66.7576520372  -0.003597326202 0.00709439  0.00045798  0.0076614 0.0000
  7    -66.7577932182  -0.000141181052 0.00133074  0.00009001  0.0075344 0.0000
  8    -66.7578151295  -0.000021911315 0.00620911  0.00043297  0.0075169 0.0000
  9    -66.7578825285  -0.000067398927 0.00093519  0.00008281  0.0073297 0.0000
 10    -66.7578942195  -0.000011691070 0.00093803  0.00007348  0.0073352 0.0000
 11    -66.7579057170  -0.000011497479 0.00076603  0.00005911  0.0073459 0.0000
 12    -66.7579150339  -0.000009316904 0.00046621  0.00003608  0.0073523 0.0000
 13    -66.7579207376  -0.000005703732 0.00015665  0.00001389  0.0073550 0.0000
 14    -66.7579227092  -0.000001971569 0.00056564  0.00004376  0.0073565 0.0000
 15    -66.7579296466  -0.000006937421 0.00068015  0.00005271  0.0073592 0.0000
 16    -66.7579380459  -0.000008399263 0.00065296  0.00005078  0.0073614 0.0000
 17    -66.7579462003  -0.000008154365 0.00058734  0.00004590  0.0073624 0.0000
 18    -66.7579536300  -0.000007429770 0.00056797  0.00004456  0.0073623 0.0000
 19    -66.7579609024  -0.000007272420 0.00064067  0.00005036  0.0073617 0.0000
 20    -66.7579691923  -0.000008289873 0.00069238  0.00005457  0.0073606 0.0000
 21    -66.7579782651  -0.000009072781 0.00071447  0.00005650  0.0073588 0.0000
 22    -66.7579877599  -0.000009494803 0.00072665  0.00005766  0.0073563 0.0000
 23    -66.7579975582  -0.000009798341 0.00074689  0.00005944  0.0073533 0.0000
 24    -66.7580077777  -0.000010219480 0.00078004  0.00006225  0.0073496 0.0000
 25    -66.7580186090  -0.000010831301 0.00081592  0.00006528  0.0073453 0.0000
 26    -66.7580301111  -0.000011502095 0.00085082  0.00006825  0.0073403 0.0000
 27    -66.7580422931  -0.000012182020 0.00088614  0.00007125  0.0073346 0.0000
 28    -66.7580551839  -0.000012890787 0.00092539  0.00007448  0.0073281 0.0000
 29    -66.7580688473  -0.000013663364 0.00096891  0.00007803  0.0073209 0.0000
 30    -66.7580833683  -0.000014521057 0.00101641  0.00008190  0.0073128 0.0000
 31    -66.7580988392  -0.000015470873 0.00106823  0.00008614  0.0073038 0.0000
 32    -66.7581153628  -0.000016523593 0.00112520  0.00009081  0.0072939 0.0000
 33    -66.7581330615  -0.000017698685 0.00118853  0.00009602  0.0072828 0.0000
 34    -66.7581520850  -0.000019023507 0.00125976  0.00010188  0.0072705 0.0000
 35    -66.7581726187  -0.000020533736 0.00134094  0.00010857  0.0072568 0.0000
 36    -66.7581948956  -0.000022276839 0.00143487  0.00011632  0.0072416 0.0000
 37    -66.7582192139  -0.000024318308 0.00154546  0.00012547  0.0072245 0.0000
 38    -66.7582459649  -0.000026751043 0.00167842  0.00013648  0.0072052 0.0000
 39    -66.7582756755  -0.000029710579 0.00184217  0.00015007  0.0071834 0.0000
 40    -66.7583090767  -0.000033401191 0.00204973  0.00016733  0.0071582 0.0000
 41    -66.7583472192  -0.000038142488 0.00232186  0.00019001  0.0071289 0.0000
 42    -66.7583916752  -0.000044456057 0.00269304  0.00022103  0.0070941 0.0000
 43    -66.7584449091  -0.000053233885 0.00322283  0.00026547  0.0070516 0.0000
 44    -66.7585109885  -0.000066079403 0.00401725  0.00033244  0.0069979 0.0000
 45    -66.7585970035  -0.000086014928 0.00526404  0.00043840  0.0069266 0.0000
 46    -66.7587159041  -0.000118900656 0.00725756  0.00061013  0.0068264 0.0000
 47    -66.7588915308  -0.000175626719 0.01022216  0.00087223  0.0066758 0.0000
 48    -66.7591625125  -0.000270981661 0.01338696  0.00116962  0.0064403 0.0000
 49    -66.7595610898  -0.000398577341 0.01415815  0.00127892  0.0060925 0.0000
 50    -66.7600406655  -0.000479575637 0.01180937  0.00110786  0.0056801 0.0000
 51    -66.7604913332  -0.000450667738 0.00939485  0.00091376  0.0053052 0.0000
 52    -66.7608866909  -0.000395357654 0.00808493  0.00080297  0.0049884 0.0000
 53    -66.7612509115  -0.000364220628 0.00742742  0.00070624  0.0047043 0.0000
 54    -66.7615836665  -0.000332755012 0.00621163  0.00057159  0.0046697 0.0000
 55    -66.7618612029  -0.000277536427 0.00458667  0.00041257  0.0048314 0.0000
 56    -66.7620659736  -0.000204770629 0.00328363  0.00029085  0.0049484 0.0000
 57    -66.7622125222  -0.000146548591 0.00263200  0.00023028  0.0050307 0.0000
 58    -66.7623298290  -0.000117306810 0.00247327  0.00021393  0.0050948 0.0000
 59    -66.7624398277  -0.000109998762 0.00250854  0.00021469  0.0051533 0.0000
 60    -66.7625511960  -0.000111368249 0.00251155  0.00021284  0.0052113 0.0000
 61    -66.7626625611  -0.000111365165 0.00242587  0.00020372  0.0052683 0.0000
 62    -66.7627700330  -0.000107471816 0.00231106  0.00019246  0.0053227 0.0000
 63    -66.7628723477  -0.000102314782 0.00223471  0.00018465  0.0053739 0.0000
 64    -66.7629712259  -0.000098878155 0.00220633  0.00018096  0.0054228 0.0000
 65    -66.7630688018  -0.000097575932 0.00219140  0.00017847  0.0054705 0.0000
 66    -66.7631656826  -0.000096880724 0.00216324  0.00017499  0.0055174 0.0000
 67    -66.7632612939  -0.000095611328 0.00212526  0.00017082  0.0055633 0.0000
 68    -66.7633552121  -0.000093918270 0.00209431  0.00016730  0.0056079 0.0000
 69    -66.7634477555  -0.000092543397 0.00207640  0.00016489  0.0056514 0.0000
 70    -66.7635395074  -0.000091751842 0.00206356  0.00016294  0.0056943 0.0000
 71    -66.7636306982  -0.000091190781 0.00204781  0.00016081  0.0057365 0.0000
 72    -66.7637212043  -0.000090506167 0.00203001  0.00015858  0.0057780 0.0000
 73    -66.7638109409  -0.000089736607 0.00201538  0.00015663  0.0058189 0.0000
 74    -66.7639000529  -0.000089111995 0.00200538  0.00015508  0.0058592 0.0000
 75    -66.7639887487  -0.000088695772 0.00199695  0.00015369  0.0058990 0.0000
 76    -66.7640771024  -0.000088353717 0.00198774  0.00015227  0.0059384 0.0000
 77    -66.7641650832  -0.000087980730 0.00197865  0.00015090  0.0059773 0.0000
 78    -66.7642526998  -0.000087616609 0.00197148  0.00014969  0.0060158 0.0000
 79    -66.7643400405  -0.000087340715 0.00196616  0.00014865  0.0060539 0.0000
 80    -66.7644271906  -0.000087150123 0.00196133  0.00014767  0.0060917 0.0000
 81    -66.7645141754  -0.000086984836 0.00195649  0.00014671  0.0061291 0.0000
 82    -66.7646009969  -0.000086821465 0.00195228  0.00014582  0.0061663 0.0000
 83    -66.7646876863  -0.000086689346 0.00194922  0.00014503  0.0062031 0.0000
 84    -66.7647742972  -0.000086610984 0.00194694  0.00014432  0.0062397 0.0000
 85    -66.7648608675  -0.000086570246 0.00194492  0.00014364  0.0062760 0.0000
 86    -66.7649474112  -0.000086543679 0.00194320  0.00014301  0.0063121 0.0000
 87    -66.7650339441  -0.000086532985 0.00194211  0.00014243  0.0063480 0.0000
 88    -66.7651204971  -0.000086552934 0.00194167  0.00014191  0.0063836 0.0000
 89    -66.7652071017  -0.000086604638 0.00194161  0.00014143  0.0064191 0.0000
 90    -66.7652937779  -0.000086676208 0.00194182  0.00014099  0.0064544 0.0000
 91    -66.7653805399  -0.000086761988 0.00194241  0.00014058  0.0064895 0.0000
 92    -66.7654674074  -0.000086867454 0.00194348  0.00014022  0.0065244 0.0000
 93    -66.7655544041  -0.000086996729 0.00194493  0.00013989  0.0065592 0.0000
 94    -66.7656415498  -0.000087145754 0.00194665  0.00013960  0.0065938 0.0000
 95    -66.7657288593  -0.000087309487 0.00194866  0.00013933  0.0066283 0.0000
 96    -66.7658163479  -0.000087488613 0.00195101  0.00013910  0.0066627 0.0000
 97    -66.7659040339  -0.000087685997 0.00195370  0.00013890  0.0066969 0.0000
 98    -66.7659919349  -0.000087900973 0.00195665  0.00013873  0.0067311 0.0000
 99    -66.7660800655  -0.000088130568 0.00195985  0.00013858  0.0067651 0.0000
100    -66.7661684394  -0.000088373918 0.00196333  0.00013846  0.0067991 0.0000
101    -66.7662570717  -0.000088632339 0.00196709  0.00013836  0.0068329 0.0000
102    -66.7663459779  -0.000088906149 0.00197109  0.00013829  0.0068667 0.0000
103    -66.7664351718  -0.000089193928 0.00197532  0.00013824  0.0069003 0.0000
104    -66.7665246665  -0.000089494678 0.00197979  0.00013821  0.0069339 0.0000
105    -66.7666144753  -0.000089808783 0.00198449  0.00013821  0.0069675 0.0000
106    -66.7667046119  -0.000090136634 0.00198942  0.00013822  0.0070009 0.0000
107    -66.7667950896  -0.000090477657 0.00199456  0.00013826  0.0070343 0.0000
108    -66.7668859207  -0.000090831126 0.00199991  0.00013832  0.0070677 0.0000
109    -66.7669771177  -0.000091197023 0.00200547  0.00013839  0.0071009 0.0000
110    -66.7670686933  -0.000091575594 0.00201124  0.00013849  0.0071342 0.0000
111    -66.7671606600  -0.000091966648 0.00201720  0.00013860  0.0071674 0.0000
112    -66.7672530297  -0.000092369748 0.00202336  0.00013873  0.0072005 0.0000
113    -66.7673458145  -0.000092784764 0.00202970  0.00013888  0.0072336 0.0000
114    -66.7674390263  -0.000093211813 0.00203624  0.00013904  0.0072667 0.0000
115    -66.7675326771  -0.000093650855 0.00204296  0.00013922  0.0072997 0.0000
116    -66.7676267788  -0.000094101662 0.00204986  0.00013942  0.0073328 0.0000
117    -66.7677213429  -0.000094564111 0.00205694  0.00013964  0.0073657 0.0000
118    -66.7678163812  -0.000095038254 0.00206420  0.00013987  0.0073987 0.0000
119    -66.7679119053  -0.000095524104 0.00207163  0.00014011  0.0074317 0.0000
120    -66.7680079268  -0.000096021564 0.00207923  0.00014037  0.0074646 0.0000
121    -66.7681044574  -0.000096530561 0.00208701  0.00014065  0.0074975 0.0000
122    -66.7682015085  -0.000097051121 0.00209495  0.00014094  0.0075304 0.0000
123    -66.7682990918  -0.000097583285 0.00210306  0.00014124  0.0075633 0.0000
124    -66.7683972188  -0.000098127033 0.00211133  0.00014156  0.0075961 0.0000
125    -66.7684959012  -0.000098682343 0.00211977  0.00014190  0.0076290 0.0000
126    -66.7685951504  -0.000099249250 0.00212837  0.00014224  0.0076618 0.0000
127    -66.7686949782  -0.000099827809 0.00213713  0.00014260  0.0076947 0.0000
128    -66.7687953963  -0.000100418052 0.00214605  0.00014298  0.0077275 0.0000
129    -66.7688964163  -0.000101020003 0.00215513  0.00014337  0.0077604 0.0000
130    -66.7689980500  -0.000101633715 0.00216437  0.00014377  0.0077932 0.0000
131    -66.7691003093  -0.000102259263 0.00217377  0.00014419  0.0078261 0.0000
132    -66.7692032060  -0.000102896714 0.00218332  0.00014462  0.0078589 0.0000
133    -66.7693067521  -0.000103546132 0.00219303  0.00014506  0.0078918 0.0000
134    -66.7694109597  -0.000104207594 0.00220290  0.00014551  0.0079246 0.0000
135    -66.7695158409  -0.000104881198 0.00221293  0.00014598  0.0079575 0.0000
136    -66.7696214080  -0.000105567040 0.00222311  0.00014647  0.0079904 0.0000
137    -66.7697276732  -0.000106265218 0.00223344  0.00014696  0.0080232 0.0000
138    -66.7698346490  -0.000106975840 0.00224394  0.00014747  0.0080561 0.0000
139    -66.7699423480  -0.000107699026 0.00225458  0.00014799  0.0080890 0.0000
140    -66.7700507829  -0.000108434902 0.00226539  0.00014853  0.0081219 0.0000
141    -66.7701599665  -0.000109183598 0.00227635  0.00014908  0.0081548 0.0000
142    -66.7702699118  -0.000109945251 0.00228747  0.00014964  0.0081877 0.0000
143    -66.7703806318  -0.000110720011 0.00229875  0.00015021  0.0082206 0.0000
144    -66.7704921398  -0.000111508034 0.00231019  0.00015080  0.0082536 0.0000
145    -66.7706044493  -0.000112309482 0.00232178  0.00015140  0.0082865 0.0000
146    -66.7707175738  -0.000113124525 0.00233354  0.00015202  0.0083194 0.0000
147    -66.7708315272  -0.000113953343 0.00234545  0.00015265  0.0083524 0.0000
148    -66.7709463233  -0.000114796127 0.00235753  0.00015329  0.0083854 0.0000
149    -66.7710619764  -0.000115653074 0.00236977  0.00015394  0.0084183 0.0000
150    -66.7711785008  -0.000116524389 0.00238218  0.00015461  0.0084513 0.0000
151    -66.7712959111  -0.000117410291 0.00239475  0.00015530  0.0084843 0.0000
152    -66.7714142221  -0.000118311006 0.00240749  0.00015600  0.0085172 0.0000
153    -66.7715334488  -0.000119226772 0.00242040  0.00015671  0.0085502 0.0000
154    -66.7716536067  -0.000120157836 0.00243348  0.00015743  0.0085832 0.0000
155    -66.7717747111  -0.000121104458 0.00244673  0.00015818  0.0086162 0.0000
156    -66.7718967780  -0.000122066910 0.00246016  0.00015893  0.0086492 0.0000
157    -66.7720198235  -0.000123045475 0.00247377  0.00015970  0.0086822 0.0000
158    -66.7721438640  -0.000124040451 0.00248755  0.00016049  0.0087152 0.0000
159    -66.7722689161  -0.000125052148 0.00250152  0.00016129  0.0087481 0.0000
160    -66.7723949970  -0.000126080891 0.00251568  0.00016211  0.0087811 0.0000
161    -66.7725221240  -0.000127127020 0.00253002  0.00016294  0.0088141 0.0000
162    -66.7726503149  -0.000128190891 0.00254455  0.00016379  0.0088470 0.0000
163    -66.7727795878  -0.000129272878 0.00255928  0.00016466  0.0088800 0.0000
164    -66.7729099612  -0.000130373370 0.00257421  0.00016555  0.0089129 0.0000
165    -66.7730414539  -0.000131492779 0.00258934  0.00016645  0.0089458 0.0000
166    -66.7731740855  -0.000132631533 0.00260468  0.00016737  0.0089787 0.0000
167    -66.7733078756  -0.000133790084 0.00262022  0.00016830  0.0090115 0.0000
168    -66.7734428445  -0.000134968906 0.00263599  0.00016926  0.0090444 0.0000
169    -66.7735790130  -0.000136168495 0.00265197  0.00017023  0.0090772 0.0000
170    -66.7737164023  -0.000137389376 0.00266818  0.00017123  0.0091099 0.0000
171    -66.7738550344  -0.000138632099 0.00268463  0.00017224  0.0091427 0.0000
172    -66.7739949317  -0.000139897245 0.00270131  0.00017328  0.0091754 0.0000
173    -66.7741361171  -0.000141185424 0.00271824  0.00017433  0.0092080 0.0000
174    -66.7742786144  -0.000142497281 0.00273541  0.00017541  0.0092406 0.0000
175    -66.7744224479  -0.000143833499 0.00275285  0.00017651  0.0092731 0.0000
176    -66.7745676427  -0.000145194796 0.00277056  0.00017763  0.0093056 0.0000
177    -66.7747142246  -0.000146581934 0.00278854  0.00017878  0.0093380 0.0000
178    -66.7748622203  -0.000147995719 0.00280681  0.00017995  0.0093704 0.0000
179    -66.7750116573  -0.000149437008 0.00282537  0.00018115  0.0094027 0.0000
180    -66.7751625641  -0.000150906706 0.00284424  0.00018237  0.0094349 0.0000
181    -66.7753149698  -0.000152405779 0.00286343  0.00018362  0.0094670 0.0000
182    -66.7754689051  -0.000153935253 0.00288295  0.00018490  0.0094990 0.0000
183    -66.7756244013  -0.000155496221 0.00290281  0.00018621  0.0095310 0.0000
184    -66.7757814912  -0.000157089850 0.00292302  0.00018755  0.0095628 0.0000
185    -66.7759402085  -0.000158717384 0.00294362  0.00018892  0.0095945 0.0000
186    -66.7761005887  -0.000160380156 0.00296460  0.00019033  0.0096261 0.0000
187    -66.7762626683  -0.000162079595 0.00298599  0.00019177  0.0096575 0.0000
188    -66.7764264855  -0.000163817231 0.00300780  0.00019325  0.0096889 0.0000
189    -66.7765920802  -0.000165594711 0.00303007  0.00019476  0.0097200 0.0000
190    -66.7767594940  -0.000167413807 0.00305281  0.00019632  0.0097511 0.0000
191    -66.7769287705  -0.000169276431 0.00307604  0.00019792  0.0097819 0.0000
192    -66.7770999551  -0.000171184648 0.00309980  0.00019956  0.0098126 0.0000
193    -66.7772730958  -0.000173140692 0.00312412  0.00020125  0.0098431 0.0000
194    -66.7774482428  -0.000175146989 0.00314902  0.00020300  0.0098734 0.0000
195    -66.7776254490  -0.000177206173 0.00317454  0.00020479  0.0099035 0.0000
196    -66.7778047701  -0.000179321116 0.00320073  0.00020664  0.0099334 0.0000
197    -66.7779862650  -0.000181494952 0.00322762  0.00020855  0.0099631 0.0000
198    -66.7781699962  -0.000183731110 0.00325527  0.00021052  0.0099925 0.0000
199    -66.7783560295  -0.000186033356 0.00328372  0.00021256  0.0100216 0.0000
200    -66.7785444353  -0.000188405829 0.00331304  0.00021468  0.0100505 0.0000
201    -66.7787352884  -0.000190853098 0.00334328  0.00021687  0.0100790 0.0000
202    -66.7789286687  -0.000193380216 0.00337453  0.00021914  0.0101073 0.0000
203    -66.7791246614  -0.000195992796 0.00340687  0.00022150  0.0101352 0.0000
204    -66.7793233585  -0.000198697084 0.00344038  0.00022396  0.0101628 0.0000
205    -66.7795248586  -0.000201500064 0.00347517  0.00022653  0.0101900 0.0000
206    -66.7797292682  -0.000204409569 0.00351135  0.00022921  0.0102168 0.0000
207    -66.7799367026  -0.000207434420 0.00354906  0.00023201  0.0102432 0.0000
208    -66.7801472872  -0.000210584596 0.00358845  0.00023495  0.0102691 0.0000
209    -66.7803611586  -0.000213871434 0.00362969  0.00023804  0.0102946 0.0000
210    -66.7805784665  -0.000217307878 0.00367297  0.00024130  0.0103196 0.0000
211    -66.7807993753  -0.000220908787 0.00371854  0.00024473  0.0103440 0.0000
212    -66.7810240666  -0.000224691312 0.00376664  0.00024838  0.0103679 0.0000
213    -66.7812527420  -0.000228675373 0.00381761  0.00025224  0.0103912 0.0000
214    -66.7814856262  -0.000232884262 0.00387180  0.00025637  0.0104138 0.0000
215    -66.7817229716  -0.000237345414 0.00392967  0.00026078  0.0104358 0.0000
216    -66.7819650630  -0.000242091396 0.00399174  0.00026553  0.0104570 0.0000
217    -66.7822122243  -0.000247161215 0.00405864  0.00027065  0.0104774 0.0000
218    -66.7824648263  -0.000252602040 0.00413118  0.00027622  0.0104970 0.0000
219    -66.7827232978  -0.000258471521 0.00421031  0.00028229  0.0105156 0.0000
220    -66.7829881388  -0.000264840967 0.00429727  0.00028898  0.0105333 0.0000
221    -66.7832599385  -0.000271799764 0.00439361  0.00029638  0.0105498 0.0000
222    -66.7835394002  -0.000279461653 0.00450135  0.00030466  0.0105652 0.0000
223    -66.7838273741  -0.000287973853 0.00462317  0.00031402  0.0105792 0.0000
224    -66.7841249047  -0.000297530659 0.00476267  0.00032473  0.0105918 0.0000
225    -66.7844332990  -0.000308394293 0.00492485  0.00033717  0.0106028 0.0000
226    -66.7847542270  -0.000320927969 0.00511686  0.00035187  0.0106119 0.0000
227    -66.7850898773  -0.000335650327 0.00534928  0.00036963  0.0106189 0.0000
228    -66.7854432064  -0.000353329114 0.00563850  0.00039168  0.0106234 0.0000
229    -66.7858183574  -0.000375150995 0.00601500  0.00042003  0.0106250 0.0000
230    -66.7862214064  -0.000403048967 0.00652207  0.00045816  0.0106228 0.0000
231    -66.7866617890  -0.000440382602 0.00724722  0.00051265  0.0106159 0.0000
232    -66.7871552762  -0.000493487252 0.00837280  0.00059729  0.0106022 0.0000
233    -66.7877309098  -0.000575633606 0.01033428  0.00074538  0.0105782 0.0000
234    -66.7884496780  -0.000718768207 0.01438071  0.00105427  0.0105359 0.0000
235    -66.7894655196  -0.001015841525 0.02507501  0.00189618  0.0104517 0.0000
236    -66.7912823016  -0.001816782036 0.06167168  0.00515793  0.0102269 0.0000
237    -66.7960119723  -0.004729670726 0.10549133  0.00999921  0.0090966 0.0000
238    -66.8019065709  -0.005894598518 0.06313235  0.00564407  0.0063660 0.0000
239    -66.7995356125   0.002370958375 0.05583790  0.00490583  0.0071109 0.0000
240    -66.8021532838  -0.002617671296 0.03529960  0.00275853  0.0045141 0.0000
241    -66.8030534321  -0.000900148311 0.00848210  0.00095749  0.0041416 0.0000
242    -66.8033974452  -0.000344013109 0.01636911  0.00121560  0.0016635 0.0000
243    -66.8035436103  -0.000146165110 0.00707352  0.00054687  0.0013169 0.0000
244    -66.8035797727  -0.000036162408 0.00118750  0.00009721  0.0005043 0.0000
245    -66.8035838049  -0.000004032171 0.00044315  0.00004807  0.0002805 0.0000
246    -66.8035856231  -0.000001818172 0.00052505  0.00004442  0.0002539 0.0000
247    -66.8035868298  -0.000001206730 0.00067936  0.00005500  0.0002241 0.0000
248    -66.8035878715  -0.000001041679 0.00056902  0.00004826  0.0001801 0.0000
                 **** Energy Check signals convergence ****

               *****************************************************
               *                     SUCCESS                       *
               *           SCF CONVERGED AFTER 249 CYCLES          *
               *****************************************************


----------------
TOTAL SCF ENERGY
----------------

Total Energy       :          -66.80358857 Eh           -1817.81806 eV

Components:
Nuclear Repulsion  :            0.00000000 Eh               0.00000 eV
Electronic Energy  :          -66.80358857 Eh           -1817.81806 eV
One Electron Energy:         -114.22987879 Eh           -3108.35303 eV
Two Electron Energy:           47.42629022 Eh            1290.53497 eV

Virial components:
Potential Energy   :          -88.84578363 Eh           -2417.61668 eV
Kinetic Energy     :           22.04219506 Eh             599.79862 eV
Virial Ratio       :            4.03071397


---------------
SCF CONVERGENCE
---------------

  Last Energy change         ...   -7.0272e-07  Tolerance :   1.0000e-06
  Last MAX-Density change    ...    3.8617e-04  Tolerance :   1.0000e-05
  Last RMS-Density change    ...    3.4899e-05  Tolerance :   1.0000e-06
  Last DIIS Error            ...    1.3352e-04  Tolerance :   1.0000e-06

             **** THE GBW FILE WAS UPDATED (Mo-HIPT-NH3_0_2_bp86_xtb_lanl2dz_6-31gpol.opt_atom42.gbw) ****
             **** DENSITY Mo-HIPT-NH3_0_2_bp86_xtb_lanl2dz_6-31gpol.opt_atom42.scfp WAS UPDATED ****
             **** ENERGY FILE WAS UPDATED (Mo-HIPT-NH3_0_2_bp86_xtb_lanl2dz_6-31gpol.opt_atom42.en.tmp) ****
             **** THE GBW FILE WAS UPDATED (Mo-HIPT-NH3_0_2_bp86_xtb_lanl2dz_6-31gpol.opt_atom42.gbw) ****
             **** DENSITY Mo-HIPT-NH3_0_2_bp86_xtb_lanl2dz_6-31gpol.opt_atom42.scfp WAS UPDATED ****
----------------
ORBITAL ENERGIES
----------------

  NO   OCC          E(Eh)            E(eV) 
   0   2.0000      -2.988101       -81.3104 
   1   2.0000      -1.847415       -50.2707 
   2   2.0000      -1.847384       -50.2699 
   3   2.0000      -1.847301       -50.2676 
   4   2.0000      -0.234186        -6.3725 
   5   0.8000      -0.462267       -12.5789 
   6   0.8000      -0.462248       -12.5784 
   7   0.8000      -0.462170       -12.5763 
   8   0.8000      -0.462137       -12.5754 
   9   0.8000      -0.462103       -12.5745 
  10   0.0000      -0.023554        -0.6409 
  11   0.0000      -0.023533        -0.6404 
  12   0.0000      -0.023479        -0.6389 
  13   0.0000       0.095021         2.5857 
  14   0.0000       0.095056         2.5866 
  15   0.0000       0.095154         2.5893 
  16   0.0000       0.322080         8.7643 
  17   0.0000       0.322085         8.7644 
  18   0.0000       0.322183         8.7670 
  19   0.0000       0.322221         8.7681 
  20   0.0000       0.322246         8.7688 
  21   0.0000       2.230391        60.6920 

Warning: MO coefficients are modified such that the real solid harmonic m components
have the correct order within each shell (0, +1, -1, +2, -2, ...) and all s orbitals
come before all p orbitals etc. (with increasing orbital energy within each block of given angular momentum).

CleanUpVectors: The p-vectors have cracked symmetry
CleanUpVectors: The p-vectors have cracked symmetry
CleanUpVectors: The p-vectors have cracked symmetry
CleanUpVectors: The d-vectors have cracked symmetry at i=5
CleanUpVectors: The d-vectors have cracked symmetry at i=6
CleanUpVectors: The d-vectors have cracked symmetry at i=7
CleanUpVectors: The d-vectors have cracked symmetry at i=8
CleanUpVectors: The d-vectors have cracked symmetry at i=9
CleanUpVectors: The p-vectors have cracked symmetry
CleanUpVectors: The p-vectors have cracked symmetry
CleanUpVectors: The p-vectors have cracked symmetry
CleanUpVectors: The p-vectors have cracked symmetry
CleanUpVectors: The p-vectors have cracked symmetry
CleanUpVectors: The p-vectors have cracked symmetry
CleanUpVectors: The d-vectors have cracked symmetry at i=16
CleanUpVectors: The d-vectors have cracked symmetry at i=17
--------------------------
ATOM BASIS FOR ELEMENT Mo
--------------------------
 NewGTO Mo
 S 8
    1          2.361000000000         0.903355139189
    2          1.309000000000        -1.136646453355
    3          0.450000000000        -0.603814916066
    4          2.361000000000         0.008273858903
    5          1.309000000000        -0.011547947073
    6          0.450000000000        -0.011803614291
    7          0.168100000000         0.010231228574
    8          0.042300000000        -0.004046822190
 P 18
    1          4.895000000000         0.029090136409
    2          1.044000000000        -0.225573452219
    3          0.387700000000        -0.127254941925
    4          4.895000000000        -0.083463051538
    5          1.044000000000         0.647196988131
    6          0.387700000000         0.365109521215
    7          4.895000000000         0.020334614337
    8          1.044000000000        -0.157680565366
    9          0.387700000000        -0.088953868423
   10          0.499500000000         0.000199965085
   11          0.078000000000        -0.001916231040
   12          0.499500000000        -0.000573723544
   13          0.078000000000         0.005497894124
   14          0.499500000000         0.000139779780
   15          0.078000000000        -0.001339485612
   16          0.024700000000        -0.000341397813
   17          0.024700000000         0.000979510815
   18          0.024700000000        -0.000238644218
 P 18
    1          4.895000000000        -0.029876749499
    2          1.044000000000         0.231673080900
    3          0.387700000000         0.130695984680
    4          4.895000000000        -0.029957952622
    5          1.044000000000         0.232302753735
    6          0.387700000000         0.131051208131
    7          4.895000000000        -0.080221016156
    8          1.044000000000         0.622057294627
    9          0.387700000000         0.350927221812
   10          0.499500000000        -0.000208482383
   11          0.078000000000         0.001997850847
   12          0.499500000000        -0.000209049025
   13          0.078000000000         0.002003280879
   14          0.499500000000        -0.000559788762
   15          0.078000000000         0.005364359501
   16          0.024700000000         0.000344530862
   17          0.024700000000         0.000345467275
   18          0.024700000000         0.000925087779
 D 18
    1          2.993000000000        -0.008808851495
    2          1.063000000000        -0.083630749368
    3          0.372100000000        -0.096836046101
    4          2.993000000000         0.009492127044
    5          1.063000000000         0.090117729672
    6          0.372100000000         0.104347320705
    7          2.993000000000        -0.017210760121
    8          1.063000000000        -0.163398005618
    9          0.372100000000        -0.189198553457
   10          2.993000000000         0.024177011466
   11          1.063000000000         0.229535210979
   12          0.372100000000         0.265778824658
   13          2.993000000000         0.035615040336
   14          1.063000000000         0.338127225062
   15          0.372100000000         0.391517519594
   16          0.117800000000        -0.032223454249
   17          0.117800000000         0.034722928601
   18          0.117800000000        -0.062958280277
 P 18
    1          4.895000000000        -0.003945168122
    2          1.044000000000         0.030591991057
    3          0.387700000000         0.017258156964
    4          4.895000000000        -0.003955890838
    5          1.044000000000         0.030675138144
    6          0.387700000000         0.017305063538
    7          4.895000000000        -0.010593033073
    8          1.044000000000         0.082141486247
    9          0.387700000000         0.046339274232
   10          0.499500000000         0.006827805143
   11          0.078000000000        -0.065429683278
   12          0.499500000000         0.006846362683
   13          0.078000000000        -0.065607516998
   14          0.499500000000         0.018333101013
   15          0.078000000000        -0.175682956336
   16          0.024700000000        -0.285460658896
   17          0.024700000000        -0.286236522823
   18          0.024700000000        -0.766480440680
 P 18
    1          4.895000000000        -0.006488964330
    2          1.044000000000         0.050317333155
    3          0.387700000000         0.028386005736
    4          4.895000000000        -0.006506600928
    5          1.044000000000         0.050454092511
    6          0.387700000000         0.028463157119
    7          4.895000000000        -0.017423291394
    8          1.044000000000         0.135105313135
    9          0.387700000000         0.076218272175
   10          0.499500000000         0.049885417156
   11          0.078000000000        -0.478043379443
   12          0.499500000000         0.050021002591
   13          0.078000000000        -0.479342671364
   14          0.499500000000         0.133945590577
   15          0.078000000000        -1.283577575004
   16          0.024700000000         0.354829060969
   17          0.024700000000         0.355793464101
   18          0.024700000000         0.952739113656
 D 18
    1          2.993000000000        -0.005944377740
    2          1.063000000000        -0.056435593811
    3          0.372100000000        -0.065346775024
    4          2.993000000000         0.006405464858
    5          1.063000000000         0.060813129432
    6          0.372100000000         0.070415523594
    7          2.993000000000        -0.011614142815
    8          1.063000000000        -0.110264030156
    9          0.372100000000        -0.127674722375
   10          2.993000000000         0.016315099512
   11          1.063000000000         0.154894653285
   12          0.372100000000         0.179352521647
   13          2.993000000000         0.024033695314
   14          1.063000000000         0.228174575344
   15          0.372100000000         0.264203344634
   16          0.117800000000         0.199033680262
   17          0.117800000000        -0.214472111336
   18          0.117800000000         0.388872593349
 end
-------------------------------------------
RADIAL EXPECTATION VALUES <R**-3> TO <R**3>
-------------------------------------------
   0 :     0.000000     1.103339     0.986526     1.134547     1.429593     1.990750
   1 :     1.097660     0.915885     0.894100     1.267463     1.808540     2.891899
   2 :     1.097644     0.915874     0.894093     1.267479     1.808601     2.892099
   3 :     0.000000     0.151321     0.325269     3.757126    16.305399    80.017233
   4 :     1.097627     0.915862     0.894086     1.267497     1.808670     2.892323
   5 :     0.527651     0.537731     0.669264     1.778886     3.750736    46.677450
   6 :     0.527750     0.537812     0.669326     1.778633     3.749440    46.649922
   7 :     0.527763     0.537823     0.669334     1.778600     3.749273    46.646285
   8 :     0.527771     0.537830     0.669340     1.778579     3.749167    46.643976
   9 :     0.527742     0.537807     0.669321     1.778659     3.749600    46.650714
  10 :     0.020405     0.045683     0.186354     6.264035    44.136084   343.060335
  11 :     0.020412     0.045689     0.186360     6.263910    44.134558   343.044722
  12 :     0.020422     0.045699     0.186373     6.263636    44.131167   343.009860
  13 :     0.066288     0.094666     0.247637     5.595160    40.158755   339.249554
  14 :     0.066297     0.094670     0.247637     5.595269    40.160219   339.264967
  15 :     0.066305     0.094673     0.247632     5.595525    40.163541   339.299605
  16 :     0.176911     0.195667     0.352732     3.665191    15.145029   334.371101
  17 :     0.176976     0.195721     0.352773     3.665025    15.144183   334.352650
  18 :     0.176898     0.195657     0.352723     3.665224    15.145196   334.374738
  19 :     0.176890     0.195650     0.352718     3.665245    15.145302   334.377047
  20 :     0.176945     0.195696     0.352753     3.665104    15.144587   334.361436
  21 :     0.000000     1.255210     0.576938     3.764824    19.128494   111.790610
Making the total density                ... o.k.
o.k.
Initializing the integrals              ... done
Making exponents                        ... done
Making rho(0)                           ... done (         0.000054964)
Integral calculation                    ... Two index integrals                     ... done
Solving the equation system             ... done
atomic density will be written to file Mo-HIPT-NH3_0_2_bp86_xtb_lanl2dz_6-31gpol.opt_atom42.adf

-------
TIMINGS
-------

Total SCF time: 0 days 0 hours 0 min 2 sec 

Total time                  ....       2.271 sec
Sum of individual times     ....       1.431 sec  ( 63.0%)

Fock matrix formation       ....       0.896 sec  ( 39.4%)
Diagonalization             ....       0.285 sec  ( 12.6%)
Density matrix formation    ....       0.003 sec  (  0.1%)
Population analysis         ....       0.000 sec  (  0.0%)
Initial guess               ....       0.001 sec  (  0.0%)
Orbital Transformation      ....       0.000 sec  (  0.0%)
Orbital Orthonormalization  ....       0.000 sec  (  0.0%)
DIIS solution               ....       0.246 sec  ( 10.8%)

Maximum memory used throughout the entire SCF-calculation: 225.4 MB

-------------------------   --------------------
FINAL SINGLE POINT ENERGY       -66.803588574180
-------------------------   --------------------


                            ***************************************
                            *     ORCA property calculations      *
                            ***************************************

                                    ---------------------
                                    Active property flags
                                    ---------------------
   (+) Dipole Moment


------------------------------------------------------------------------------
                       ORCA ELECTRIC PROPERTIES CALCULATION
------------------------------------------------------------------------------

Dipole Moment Calculation                       ... on
Quadrupole Moment Calculation                   ... off
Polarizability Calculation                      ... off
GBWName                                         ... Mo-HIPT-NH3_0_2_bp86_xtb_lanl2dz_6-31gpol.opt_atom42.gbw
Electron density                                ... Mo-HIPT-NH3_0_2_bp86_xtb_lanl2dz_6-31gpol.opt_atom42.scfp
The origin for moment calculation is the CENTER OF MASS  = ( 0.000000,  0.000000  0.000000)

-------------
DIPOLE MOMENT
-------------
                                X             Y             Z
Electronic contribution:      0.00000       0.00000      -0.00000
Nuclear contribution   :      0.00000       0.00000       0.00000
                        -----------------------------------------
Total Dipole Moment    :      0.00000       0.00000      -0.00000
                        -----------------------------------------
Magnitude (a.u.)       :      0.00000
Magnitude (Debye)      :      0.00000



--------------------
Rotational spectrum 
--------------------
 
Rotational constants in cm-1:     0.000000     0.000000     0.000000 
Rotational constants in MHz :     0.000000     0.000000     0.000000 

 Dipole components along the rotational axes: 
x,y,z [a.u.] :     0.000000     0.000000    -0.000000 
x,y,z [Debye]:     0.000000     0.000000    -0.000000 

 

Timings for individual modules:

Sum of individual times         ...        3.052 sec (=   0.051 min)
GTO integral calculation        ...        0.561 sec (=   0.009 min)  18.4 %
SCF iterations                  ...        2.491 sec (=   0.042 min)  81.6 %
                             ****ORCA TERMINATED NORMALLY****
TOTAL RUN TIME: 0 days 0 hours 0 minutes 3 seconds 550 msec
